LAMMPS Description

     27  atoms
     26  bonds
     25  angles
     19  dihedrals
     0  impropers

     3  atom types
     1  bond types
     1  angle types
     2  dihedral types

  -13.0 13.0 xlo xhi
  -13.0 13.0 ylo yhi
  -13.0 13.0 zlo zhi

Masses

    1   1.0
    2   1.0
    3   1.0

Atoms # full

1 1 2 0.0 -2.4 1.7 0.0
2 1 1 0.0 -1.8 1.7 0.8
3 1 2 0.0 -1.2 2.5 0.8
4 1 1 0.0 -0.6 2.5 0.0
5 1 2 0.0 0.0 1.7 0.0
6 1 1 0.0 0.6 1.7 0.8
7 1 3 0.0 1.2 2.5 0.8
8 1 3 0.0 1.8 2.5 0.0
9 1 1 0.0 2.4 1.7 0.0
10 1 2 0.0 3.0 1.7 -0.8
11 1 1 0.0 3.0 0.7 -0.8
12 1 2 0.0 3.0 0.1 0.0
13 1 1 0.0 3.8 -0.5 0.0
14 1 2 0.0 3.8 -1.1 -0.8
15 1 3 0.0 3.0 -1.7 -0.8
16 1 3 0.0 3.0 -1.7 0.2
17 1 3 0.0 2.4 -2.5 0.2
18 1 1 0.0 1.8 -2.5 -0.6
19 1 1 0.0 1.2 -1.7 -0.6
20 1 2 0.0 0.6 -1.7 0.2
21 1 2 0.0 0.0 -2.5 0.2
22 1 1 0.0 -0.6 -2.5 -0.6
23 1 1 0.0 -1.2 -1.7 -0.6
24 1 2 0.0 -1.8 -1.7 0.2
25 1 2 0.0 -2.4 -2.5 0.2
26 1 1 0.0 -3.0 -2.5 -0.6
27 1 2 0.0 -3.6 -1.7 -0.6

Bonds

1 1 1 2
2 1 2 3
3 1 3 4
4 1 4 5
5 1 5 6
6 1 6 7
7 1 7 8
8 1 8 9
9 1 9 10
10 1 10 11
11 1 11 12
12 1 12 13
13 1 13 14
14 1 14 15
15 1 15 16
16 1 16 17
17 1 17 18
18 1 18 19
19 1 19 20
20 1 20 21
21 1 21 22
22 1 22 23
23 1 23 24
24 1 24 25
25 1 25 26
26 1 26 27

Angles

1 1 13 14 15
2 1 7 8 9
3 1 6 7 8
4 1 16 17 18
5 1 15 16 17
6 1 2 3 4
7 1 4 5 6
8 1 9 10 11
9 1 11 12 13
10 1 14 15 16
11 1 1 2 3
12 1 3 4 5
13 1 10 11 12
14 1 12 13 14
15 1 25 26 27
16 1 5 6 7
17 1 8 9 10
18 1 17 18 19
19 1 18 19 20
20 1 22 23 24
21 1 21 22 23
22 1 19 20 21
23 1 20 21 22
24 1 23 24 25
25 1 24 25 26

Dihedrals

1 2 1 2 3 4
2 2 2 3 4 5
3 2 3 4 5 6
4 2 4 5 6 7
5 2 8 9 10 11
6 2 9 10 11 12
7 2 10 11 12 13
8 2 11 12 13 14
9 2 12 13 14 15
10 1 15 16 17 18
11 1 16 17 18 19
12 1 17 18 19 20
13 1 18 19 20 21
14 1 19 20 21 22
15 1 20 21 22 23
16 1 21 22 23 24
17 1 22 23 24 25
18 1 23 24 25 26
19 1 24 25 26 27

