LAMMPS data file via write_data, version 21 Dec 2016, timestep = 130

27 atoms
3 atom types
26 bonds
1 bond types
25 angles
1 angle types
19 dihedrals
2 dihedral types

-1.3000000000000000e+01 1.3000000000000000e+01 xlo xhi
-1.3000000000000000e+01 1.3000000000000000e+01 ylo yhi
-1.3000000000000000e+01 1.3000000000000000e+01 zlo zhi

Masses

1 1
2 1
3 1

Atoms # full

26 1 1 0.0000000000000000e+00 -2.8991572273921151e+00 -1.7954585022721630e+00 2.8856295161327555e-01 0 0 0
22 1 1 0.0000000000000000e+00 -3.2051658220121226e-01 -2.4669612232798914e+00 -1.0347967293883550e-01 0 0 0
18 1 1 0.0000000000000000e+00 1.9628347920293758e+00 -1.9155853401899625e+00 -1.4001396270737887e+00 0 0 0
27 1 2 0.0000000000000000e+00 -3.8840506963319479e+00 -1.8731403562961377e+00 4.4430027290042945e-01 0 0 0
23 1 1 0.0000000000000000e+00 -1.2983773256353910e+00 -2.5395908003326104e+00 9.3803267900262624e-02 0 0 0
19 1 1 0.0000000000000000e+00 9.8940535710760080e-01 -2.0131640570325851e+00 -1.1931224685220483e+00 0 0 0
14 1 2 0.0000000000000000e+00 3.6194638280993625e+00 -7.8704124140026310e-01 -1.4219664437559065e-01 0 0 0
15 1 3 0.0000000000000000e+00 3.5903406451898405e+00 -1.2445472138731226e+00 -1.0308971838428003e+00 0 0 0
10 1 2 0.0000000000000000e+00 3.1808315513931618e+00 1.3673915306961497e+00 1.6471908225657486e-01 0 0 0
11 1 1 0.0000000000000000e+00 3.4581539935327488e+00 7.0437903624570275e-01 8.6035361960416235e-01 0 0 0
25 1 2 0.0000000000000000e+00 -2.7269523772205027e+00 -2.3198849439425091e+00 -5.4392434596317751e-01 0 0 0
21 1 2 0.0000000000000000e+00 -1.5607321434383928e-01 -1.4920272550982192e+00 -2.4554716133877355e-01 0 0 0
17 1 3 0.0000000000000000e+00 2.4371429300907357e+00 -2.2386687208802325e+00 -5.8138951814514039e-01 0 0 0
24 1 2 0.0000000000000000e+00 -1.7530556176349523e+00 -2.1893261321756463e+00 -7.2382008811943954e-01 0 0 0
20 1 2 0.0000000000000000e+00 8.2858481050505683e-01 -1.4298073003334419e+00 -3.9741495657417836e-01 0 0 0
13 1 1 0.0000000000000000e+00 2.7139381508362352e+00 -3.7636666510501415e-01 -3.2316571484795734e-02 0 0 0
16 1 3 0.0000000000000000e+00 3.4077224261891135e+00 -2.2054644706567506e+00 -8.1882174436459676e-01 0 0 0
1 1 2 0.0000000000000000e+00 -2.6089812560842538e+00 2.3488940177162316e+00 7.5664441615446609e-01 0 0 0
2 1 1 0.0000000000000000e+00 -1.6354665774177981e+00 2.3469156368903286e+00 5.2886343077920506e-01 0 0 0
5 1 2 0.0000000000000000e+00 -1.6836665086926512e-02 1.5506887929685211e+00 6.0324011964840418e-01 0 0 0
6 1 1 0.0000000000000000e+00 9.4611434048034559e-01 1.5140103230557007e+00 3.3433666020478503e-01 0 0 0
9 1 1 0.0000000000000000e+00 2.3122680292439881e+00 1.7378170039775236e+00 4.9372698455733405e-01 0 0 0
12 1 2 0.0000000000000000e+00 2.7242078074034617e+00 2.6153542845323001e-02 8.8266205903378858e-01 0 0 0
3 1 2 0.0000000000000000e+00 -1.4923862470055551e+00 1.5008026008507325e+00 1.6349035062180467e-02 0 0 0
4 1 1 0.0000000000000000e+00 -5.2981760270206224e-01 1.5208720085707081e+00 -2.5505159465296340e-01 0 0 0
7 1 3 0.0000000000000000e+00 1.0847410278327543e+00 2.3218367435145710e+00 -2.3469738143702998e-01 0 0 0
8 1 3 0.0000000000000000e+00 2.0659216991227676e+00 2.4472729855370652e+00 -1.6474294088171088e-01 0 0 0

Velocities

26 0.0000000000000000e+00 0.0000000000000000e+00 0.0000000000000000e+00
22 0.0000000000000000e+00 0.0000000000000000e+00 0.0000000000000000e+00
18 0.0000000000000000e+00 0.0000000000000000e+00 0.0000000000000000e+00
27 0.0000000000000000e+00 0.0000000000000000e+00 0.0000000000000000e+00
23 0.0000000000000000e+00 0.0000000000000000e+00 0.0000000000000000e+00
19 0.0000000000000000e+00 0.0000000000000000e+00 0.0000000000000000e+00
14 0.0000000000000000e+00 0.0000000000000000e+00 0.0000000000000000e+00
15 0.0000000000000000e+00 0.0000000000000000e+00 0.0000000000000000e+00
10 0.0000000000000000e+00 0.0000000000000000e+00 0.0000000000000000e+00
11 0.0000000000000000e+00 0.0000000000000000e+00 0.0000000000000000e+00
25 0.0000000000000000e+00 0.0000000000000000e+00 0.0000000000000000e+00
21 0.0000000000000000e+00 0.0000000000000000e+00 0.0000000000000000e+00
17 0.0000000000000000e+00 0.0000000000000000e+00 0.0000000000000000e+00
24 0.0000000000000000e+00 0.0000000000000000e+00 0.0000000000000000e+00
20 0.0000000000000000e+00 0.0000000000000000e+00 0.0000000000000000e+00
13 0.0000000000000000e+00 0.0000000000000000e+00 0.0000000000000000e+00
16 0.0000000000000000e+00 0.0000000000000000e+00 0.0000000000000000e+00
1 0.0000000000000000e+00 0.0000000000000000e+00 0.0000000000000000e+00
2 0.0000000000000000e+00 0.0000000000000000e+00 0.0000000000000000e+00
5 0.0000000000000000e+00 0.0000000000000000e+00 0.0000000000000000e+00
6 0.0000000000000000e+00 0.0000000000000000e+00 0.0000000000000000e+00
9 0.0000000000000000e+00 0.0000000000000000e+00 0.0000000000000000e+00
12 0.0000000000000000e+00 0.0000000000000000e+00 0.0000000000000000e+00
3 0.0000000000000000e+00 0.0000000000000000e+00 0.0000000000000000e+00
4 0.0000000000000000e+00 0.0000000000000000e+00 0.0000000000000000e+00
7 0.0000000000000000e+00 0.0000000000000000e+00 0.0000000000000000e+00
8 0.0000000000000000e+00 0.0000000000000000e+00 0.0000000000000000e+00

Bonds

1 1 26 27
2 1 22 23
3 1 18 19
4 1 23 24
5 1 19 20
6 1 14 15
7 1 15 16
8 1 10 11
9 1 11 12
10 1 25 26
11 1 21 22
12 1 17 18
13 1 24 25
14 1 20 21
15 1 13 14
16 1 16 17
17 1 1 2
18 1 2 3
19 1 5 6
20 1 6 7
21 1 9 10
22 1 12 13
23 1 3 4
24 1 4 5
25 1 7 8
26 1 8 9

Angles

1 1 25 26 27
2 1 21 22 23
3 1 17 18 19
4 1 22 23 24
5 1 18 19 20
6 1 13 14 15
7 1 14 15 16
8 1 9 10 11
9 1 10 11 12
10 1 24 25 26
11 1 20 21 22
12 1 16 17 18
13 1 23 24 25
14 1 19 20 21
15 1 12 13 14
16 1 15 16 17
17 1 1 2 3
18 1 4 5 6
19 1 5 6 7
20 1 8 9 10
21 1 11 12 13
22 1 2 3 4
23 1 3 4 5
24 1 6 7 8
25 1 7 8 9

Dihedrals

1 1 21 22 23 24
2 1 17 18 19 20
3 1 22 23 24 25
4 1 18 19 20 21
5 2 9 10 11 12
6 2 10 11 12 13
7 1 24 25 26 27
8 1 20 21 22 23
9 1 16 17 18 19
10 1 23 24 25 26
11 1 19 20 21 22
12 2 12 13 14 15
13 1 15 16 17 18
14 2 1 2 3 4
15 2 4 5 6 7
16 2 8 9 10 11
17 2 11 12 13 14
18 2 2 3 4 5
19 2 3 4 5 6
