LAMMPS Description

     3016  atoms
     2000  bonds
     1000  angles
     0  dihedrals
     0  impropers

     4  atom types
     1  bond types
     1  angle types

  0.0 34.50 xlo xhi
  0.0 34.50 ylo yhi
  0.0 34.50 zlo zhi

Masses

    1 15.9994
    2 1.008
    3 22.9898
    4 35.453

Atoms # full

1 1 1 -0.8476 0.0 0.0 0.0
2 1 2 0.4238 0.8164904 0.0 0.577359
3 1 2 0.4238 -0.8164904 0.0 0.577359
4 2 1 -0.8476 3.45 0.0 0.0
5 2 2 0.4238 4.2664904 0.0 0.577359
6 2 2 0.4238 2.6335096 0.0 0.577359
7 3 1 -0.8476 6.9 0.0 0.0
8 3 2 0.4238 7.7164904 0.0 0.577359
9 3 2 0.4238 6.0835096 0.0 0.577359
10 4 1 -0.8476 10.35 0.0 0.0
11 4 2 0.4238 11.1664904 0.0 0.577359
12 4 2 0.4238 9.5335096 0.0 0.577359
13 5 1 -0.8476 13.8 0.0 0.0
14 5 2 0.4238 14.6164904 0.0 0.577359
15 5 2 0.4238 12.9835096 0.0 0.577359
16 6 1 -0.8476 17.25 0.0 0.0
17 6 2 0.4238 18.0664904 0.0 0.577359
18 6 2 0.4238 16.4335096 0.0 0.577359
19 7 1 -0.8476 20.7 0.0 0.0
20 7 2 0.4238 21.5164904 0.0 0.577359
21 7 2 0.4238 19.8835096 0.0 0.577359
22 8 1 -0.8476 24.15 0.0 0.0
23 8 2 0.4238 24.9664904 0.0 0.577359
24 8 2 0.4238 23.3335096 0.0 0.577359
25 9 1 -0.8476 27.6 0.0 0.0
26 9 2 0.4238 28.4164904 0.0 0.577359
27 9 2 0.4238 26.7835096 0.0 0.577359
28 10 1 -0.8476 31.05 0.0 0.0
29 10 2 0.4238 31.8664904 0.0 0.577359
30 10 2 0.4238 30.2335096 0.0 0.577359
31 11 1 -0.8476 0.0 3.45 0.0
32 11 2 0.4238 0.8164904 3.45 0.577359
33 11 2 0.4238 -0.8164904 3.45 0.577359
34 12 1 -0.8476 3.45 3.45 0.0
35 12 2 0.4238 4.2664904 3.45 0.577359
36 12 2 0.4238 2.6335096 3.45 0.577359
37 13 1 -0.8476 6.9 3.45 0.0
38 13 2 0.4238 7.7164904 3.45 0.577359
39 13 2 0.4238 6.0835096 3.45 0.577359
40 14 1 -0.8476 10.35 3.45 0.0
41 14 2 0.4238 11.1664904 3.45 0.577359
42 14 2 0.4238 9.5335096 3.45 0.577359
43 15 1 -0.8476 13.8 3.45 0.0
44 15 2 0.4238 14.6164904 3.45 0.577359
45 15 2 0.4238 12.9835096 3.45 0.577359
46 16 1 -0.8476 17.25 3.45 0.0
47 16 2 0.4238 18.0664904 3.45 0.577359
48 16 2 0.4238 16.4335096 3.45 0.577359
49 17 1 -0.8476 20.7 3.45 0.0
50 17 2 0.4238 21.5164904 3.45 0.577359
51 17 2 0.4238 19.8835096 3.45 0.577359
52 18 1 -0.8476 24.15 3.45 0.0
53 18 2 0.4238 24.9664904 3.45 0.577359
54 18 2 0.4238 23.3335096 3.45 0.577359
55 19 1 -0.8476 27.6 3.45 0.0
56 19 2 0.4238 28.4164904 3.45 0.577359
57 19 2 0.4238 26.7835096 3.45 0.577359
58 20 1 -0.8476 31.05 3.45 0.0
59 20 2 0.4238 31.8664904 3.45 0.577359
60 20 2 0.4238 30.2335096 3.45 0.577359
61 21 1 -0.8476 0.0 6.9 0.0
62 21 2 0.4238 0.8164904 6.9 0.577359
63 21 2 0.4238 -0.8164904 6.9 0.577359
64 22 1 -0.8476 3.45 6.9 0.0
65 22 2 0.4238 4.2664904 6.9 0.577359
66 22 2 0.4238 2.6335096 6.9 0.577359
67 23 1 -0.8476 6.9 6.9 0.0
68 23 2 0.4238 7.7164904 6.9 0.577359
69 23 2 0.4238 6.0835096 6.9 0.577359
70 24 1 -0.8476 10.35 6.9 0.0
71 24 2 0.4238 11.1664904 6.9 0.577359
72 24 2 0.4238 9.5335096 6.9 0.577359
73 25 1 -0.8476 13.8 6.9 0.0
74 25 2 0.4238 14.6164904 6.9 0.577359
75 25 2 0.4238 12.9835096 6.9 0.577359
76 26 1 -0.8476 17.25 6.9 0.0
77 26 2 0.4238 18.0664904 6.9 0.577359
78 26 2 0.4238 16.4335096 6.9 0.577359
79 27 1 -0.8476 20.7 6.9 0.0
80 27 2 0.4238 21.5164904 6.9 0.577359
81 27 2 0.4238 19.8835096 6.9 0.577359
82 28 1 -0.8476 24.15 6.9 0.0
83 28 2 0.4238 24.9664904 6.9 0.577359
84 28 2 0.4238 23.3335096 6.9 0.577359
85 29 1 -0.8476 27.6 6.9 0.0
86 29 2 0.4238 28.4164904 6.9 0.577359
87 29 2 0.4238 26.7835096 6.9 0.577359
88 30 1 -0.8476 31.05 6.9 0.0
89 30 2 0.4238 31.8664904 6.9 0.577359
90 30 2 0.4238 30.2335096 6.9 0.577359
91 31 1 -0.8476 0.0 10.35 0.0
92 31 2 0.4238 0.8164904 10.35 0.577359
93 31 2 0.4238 -0.8164904 10.35 0.577359
94 32 1 -0.8476 3.45 10.35 0.0
95 32 2 0.4238 4.2664904 10.35 0.577359
96 32 2 0.4238 2.6335096 10.35 0.577359
97 33 1 -0.8476 6.9 10.35 0.0
98 33 2 0.4238 7.7164904 10.35 0.577359
99 33 2 0.4238 6.0835096 10.35 0.577359
100 34 1 -0.8476 10.35 10.35 0.0
101 34 2 0.4238 11.1664904 10.35 0.577359
102 34 2 0.4238 9.5335096 10.35 0.577359
103 35 1 -0.8476 13.8 10.35 0.0
104 35 2 0.4238 14.6164904 10.35 0.577359
105 35 2 0.4238 12.9835096 10.35 0.577359
106 36 1 -0.8476 17.25 10.35 0.0
107 36 2 0.4238 18.0664904 10.35 0.577359
108 36 2 0.4238 16.4335096 10.35 0.577359
109 37 1 -0.8476 20.7 10.35 0.0
110 37 2 0.4238 21.5164904 10.35 0.577359
111 37 2 0.4238 19.8835096 10.35 0.577359
112 38 1 -0.8476 24.15 10.35 0.0
113 38 2 0.4238 24.9664904 10.35 0.577359
114 38 2 0.4238 23.3335096 10.35 0.577359
115 39 1 -0.8476 27.6 10.35 0.0
116 39 2 0.4238 28.4164904 10.35 0.577359
117 39 2 0.4238 26.7835096 10.35 0.577359
118 40 1 -0.8476 31.05 10.35 0.0
119 40 2 0.4238 31.8664904 10.35 0.577359
120 40 2 0.4238 30.2335096 10.35 0.577359
121 41 1 -0.8476 0.0 13.8 0.0
122 41 2 0.4238 0.8164904 13.8 0.577359
123 41 2 0.4238 -0.8164904 13.8 0.577359
124 42 1 -0.8476 3.45 13.8 0.0
125 42 2 0.4238 4.2664904 13.8 0.577359
126 42 2 0.4238 2.6335096 13.8 0.577359
127 43 1 -0.8476 6.9 13.8 0.0
128 43 2 0.4238 7.7164904 13.8 0.577359
129 43 2 0.4238 6.0835096 13.8 0.577359
130 44 1 -0.8476 10.35 13.8 0.0
131 44 2 0.4238 11.1664904 13.8 0.577359
132 44 2 0.4238 9.5335096 13.8 0.577359
133 45 1 -0.8476 13.8 13.8 0.0
134 45 2 0.4238 14.6164904 13.8 0.577359
135 45 2 0.4238 12.9835096 13.8 0.577359
136 46 1 -0.8476 17.25 13.8 0.0
137 46 2 0.4238 18.0664904 13.8 0.577359
138 46 2 0.4238 16.4335096 13.8 0.577359
139 47 1 -0.8476 20.7 13.8 0.0
140 47 2 0.4238 21.5164904 13.8 0.577359
141 47 2 0.4238 19.8835096 13.8 0.577359
142 48 1 -0.8476 24.15 13.8 0.0
143 48 2 0.4238 24.9664904 13.8 0.577359
144 48 2 0.4238 23.3335096 13.8 0.577359
145 49 1 -0.8476 27.6 13.8 0.0
146 49 2 0.4238 28.4164904 13.8 0.577359
147 49 2 0.4238 26.7835096 13.8 0.577359
148 50 1 -0.8476 31.05 13.8 0.0
149 50 2 0.4238 31.8664904 13.8 0.577359
150 50 2 0.4238 30.2335096 13.8 0.577359
151 51 1 -0.8476 0.0 17.25 0.0
152 51 2 0.4238 0.8164904 17.25 0.577359
153 51 2 0.4238 -0.8164904 17.25 0.577359
154 52 1 -0.8476 3.45 17.25 0.0
155 52 2 0.4238 4.2664904 17.25 0.577359
156 52 2 0.4238 2.6335096 17.25 0.577359
157 53 1 -0.8476 6.9 17.25 0.0
158 53 2 0.4238 7.7164904 17.25 0.577359
159 53 2 0.4238 6.0835096 17.25 0.577359
160 54 1 -0.8476 10.35 17.25 0.0
161 54 2 0.4238 11.1664904 17.25 0.577359
162 54 2 0.4238 9.5335096 17.25 0.577359
163 55 1 -0.8476 13.8 17.25 0.0
164 55 2 0.4238 14.6164904 17.25 0.577359
165 55 2 0.4238 12.9835096 17.25 0.577359
166 56 1 -0.8476 17.25 17.25 0.0
167 56 2 0.4238 18.0664904 17.25 0.577359
168 56 2 0.4238 16.4335096 17.25 0.577359
169 57 1 -0.8476 20.7 17.25 0.0
170 57 2 0.4238 21.5164904 17.25 0.577359
171 57 2 0.4238 19.8835096 17.25 0.577359
172 58 1 -0.8476 24.15 17.25 0.0
173 58 2 0.4238 24.9664904 17.25 0.577359
174 58 2 0.4238 23.3335096 17.25 0.577359
175 59 1 -0.8476 27.6 17.25 0.0
176 59 2 0.4238 28.4164904 17.25 0.577359
177 59 2 0.4238 26.7835096 17.25 0.577359
178 60 1 -0.8476 31.05 17.25 0.0
179 60 2 0.4238 31.8664904 17.25 0.577359
180 60 2 0.4238 30.2335096 17.25 0.577359
181 61 1 -0.8476 0.0 20.7 0.0
182 61 2 0.4238 0.8164904 20.7 0.577359
183 61 2 0.4238 -0.8164904 20.7 0.577359
184 62 1 -0.8476 3.45 20.7 0.0
185 62 2 0.4238 4.2664904 20.7 0.577359
186 62 2 0.4238 2.6335096 20.7 0.577359
187 63 1 -0.8476 6.9 20.7 0.0
188 63 2 0.4238 7.7164904 20.7 0.577359
189 63 2 0.4238 6.0835096 20.7 0.577359
190 64 1 -0.8476 10.35 20.7 0.0
191 64 2 0.4238 11.1664904 20.7 0.577359
192 64 2 0.4238 9.5335096 20.7 0.577359
193 65 1 -0.8476 13.8 20.7 0.0
194 65 2 0.4238 14.6164904 20.7 0.577359
195 65 2 0.4238 12.9835096 20.7 0.577359
196 66 1 -0.8476 17.25 20.7 0.0
197 66 2 0.4238 18.0664904 20.7 0.577359
198 66 2 0.4238 16.4335096 20.7 0.577359
199 67 1 -0.8476 20.7 20.7 0.0
200 67 2 0.4238 21.5164904 20.7 0.577359
201 67 2 0.4238 19.8835096 20.7 0.577359
202 68 1 -0.8476 24.15 20.7 0.0
203 68 2 0.4238 24.9664904 20.7 0.577359
204 68 2 0.4238 23.3335096 20.7 0.577359
205 69 1 -0.8476 27.6 20.7 0.0
206 69 2 0.4238 28.4164904 20.7 0.577359
207 69 2 0.4238 26.7835096 20.7 0.577359
208 70 1 -0.8476 31.05 20.7 0.0
209 70 2 0.4238 31.8664904 20.7 0.577359
210 70 2 0.4238 30.2335096 20.7 0.577359
211 71 1 -0.8476 0.0 24.15 0.0
212 71 2 0.4238 0.8164904 24.15 0.577359
213 71 2 0.4238 -0.8164904 24.15 0.577359
214 72 1 -0.8476 3.45 24.15 0.0
215 72 2 0.4238 4.2664904 24.15 0.577359
216 72 2 0.4238 2.6335096 24.15 0.577359
217 73 1 -0.8476 6.9 24.15 0.0
218 73 2 0.4238 7.7164904 24.15 0.577359
219 73 2 0.4238 6.0835096 24.15 0.577359
220 74 1 -0.8476 10.35 24.15 0.0
221 74 2 0.4238 11.1664904 24.15 0.577359
222 74 2 0.4238 9.5335096 24.15 0.577359
223 75 1 -0.8476 13.8 24.15 0.0
224 75 2 0.4238 14.6164904 24.15 0.577359
225 75 2 0.4238 12.9835096 24.15 0.577359
226 76 1 -0.8476 17.25 24.15 0.0
227 76 2 0.4238 18.0664904 24.15 0.577359
228 76 2 0.4238 16.4335096 24.15 0.577359
229 77 1 -0.8476 20.7 24.15 0.0
230 77 2 0.4238 21.5164904 24.15 0.577359
231 77 2 0.4238 19.8835096 24.15 0.577359
232 78 1 -0.8476 24.15 24.15 0.0
233 78 2 0.4238 24.9664904 24.15 0.577359
234 78 2 0.4238 23.3335096 24.15 0.577359
235 79 1 -0.8476 27.6 24.15 0.0
236 79 2 0.4238 28.4164904 24.15 0.577359
237 79 2 0.4238 26.7835096 24.15 0.577359
238 80 1 -0.8476 31.05 24.15 0.0
239 80 2 0.4238 31.8664904 24.15 0.577359
240 80 2 0.4238 30.2335096 24.15 0.577359
241 81 1 -0.8476 0.0 27.6 0.0
242 81 2 0.4238 0.8164904 27.6 0.577359
243 81 2 0.4238 -0.8164904 27.6 0.577359
244 82 1 -0.8476 3.45 27.6 0.0
245 82 2 0.4238 4.2664904 27.6 0.577359
246 82 2 0.4238 2.6335096 27.6 0.577359
247 83 1 -0.8476 6.9 27.6 0.0
248 83 2 0.4238 7.7164904 27.6 0.577359
249 83 2 0.4238 6.0835096 27.6 0.577359
250 84 1 -0.8476 10.35 27.6 0.0
251 84 2 0.4238 11.1664904 27.6 0.577359
252 84 2 0.4238 9.5335096 27.6 0.577359
253 85 1 -0.8476 13.8 27.6 0.0
254 85 2 0.4238 14.6164904 27.6 0.577359
255 85 2 0.4238 12.9835096 27.6 0.577359
256 86 1 -0.8476 17.25 27.6 0.0
257 86 2 0.4238 18.0664904 27.6 0.577359
258 86 2 0.4238 16.4335096 27.6 0.577359
259 87 1 -0.8476 20.7 27.6 0.0
260 87 2 0.4238 21.5164904 27.6 0.577359
261 87 2 0.4238 19.8835096 27.6 0.577359
262 88 1 -0.8476 24.15 27.6 0.0
263 88 2 0.4238 24.9664904 27.6 0.577359
264 88 2 0.4238 23.3335096 27.6 0.577359
265 89 1 -0.8476 27.6 27.6 0.0
266 89 2 0.4238 28.4164904 27.6 0.577359
267 89 2 0.4238 26.7835096 27.6 0.577359
268 90 1 -0.8476 31.05 27.6 0.0
269 90 2 0.4238 31.8664904 27.6 0.577359
270 90 2 0.4238 30.2335096 27.6 0.577359
271 91 1 -0.8476 0.0 31.05 0.0
272 91 2 0.4238 0.8164904 31.05 0.577359
273 91 2 0.4238 -0.8164904 31.05 0.577359
274 92 1 -0.8476 3.45 31.05 0.0
275 92 2 0.4238 4.2664904 31.05 0.577359
276 92 2 0.4238 2.6335096 31.05 0.577359
277 93 1 -0.8476 6.9 31.05 0.0
278 93 2 0.4238 7.7164904 31.05 0.577359
279 93 2 0.4238 6.0835096 31.05 0.577359
280 94 1 -0.8476 10.35 31.05 0.0
281 94 2 0.4238 11.1664904 31.05 0.577359
282 94 2 0.4238 9.5335096 31.05 0.577359
283 95 1 -0.8476 13.8 31.05 0.0
284 95 2 0.4238 14.6164904 31.05 0.577359
285 95 2 0.4238 12.9835096 31.05 0.577359
286 96 1 -0.8476 17.25 31.05 0.0
287 96 2 0.4238 18.0664904 31.05 0.577359
288 96 2 0.4238 16.4335096 31.05 0.577359
289 97 1 -0.8476 20.7 31.05 0.0
290 97 2 0.4238 21.5164904 31.05 0.577359
291 97 2 0.4238 19.8835096 31.05 0.577359
292 98 1 -0.8476 24.15 31.05 0.0
293 98 2 0.4238 24.9664904 31.05 0.577359
294 98 2 0.4238 23.3335096 31.05 0.577359
295 99 1 -0.8476 27.6 31.05 0.0
296 99 2 0.4238 28.4164904 31.05 0.577359
297 99 2 0.4238 26.7835096 31.05 0.577359
298 100 1 -0.8476 31.05 31.05 0.0
299 100 2 0.4238 31.8664904 31.05 0.577359
300 100 2 0.4238 30.2335096 31.05 0.577359
301 101 1 -0.8476 0.0 0.0 3.45
302 101 2 0.4238 0.8164904 0.0 4.027359
303 101 2 0.4238 -0.8164904 0.0 4.027359
304 102 1 -0.8476 3.45 0.0 3.45
305 102 2 0.4238 4.2664904 0.0 4.027359
306 102 2 0.4238 2.6335096 0.0 4.027359
307 103 1 -0.8476 6.9 0.0 3.45
308 103 2 0.4238 7.7164904 0.0 4.027359
309 103 2 0.4238 6.0835096 0.0 4.027359
310 104 1 -0.8476 10.35 0.0 3.45
311 104 2 0.4238 11.1664904 0.0 4.027359
312 104 2 0.4238 9.5335096 0.0 4.027359
313 105 1 -0.8476 13.8 0.0 3.45
314 105 2 0.4238 14.6164904 0.0 4.027359
315 105 2 0.4238 12.9835096 0.0 4.027359
316 106 1 -0.8476 17.25 0.0 3.45
317 106 2 0.4238 18.0664904 0.0 4.027359
318 106 2 0.4238 16.4335096 0.0 4.027359
319 107 1 -0.8476 20.7 0.0 3.45
320 107 2 0.4238 21.5164904 0.0 4.027359
321 107 2 0.4238 19.8835096 0.0 4.027359
322 108 1 -0.8476 24.15 0.0 3.45
323 108 2 0.4238 24.9664904 0.0 4.027359
324 108 2 0.4238 23.3335096 0.0 4.027359
325 109 1 -0.8476 27.6 0.0 3.45
326 109 2 0.4238 28.4164904 0.0 4.027359
327 109 2 0.4238 26.7835096 0.0 4.027359
328 110 1 -0.8476 31.05 0.0 3.45
329 110 2 0.4238 31.8664904 0.0 4.027359
330 110 2 0.4238 30.2335096 0.0 4.027359
331 111 1 -0.8476 0.0 3.45 3.45
332 111 2 0.4238 0.8164904 3.45 4.027359
333 111 2 0.4238 -0.8164904 3.45 4.027359
334 112 1 -0.8476 3.45 3.45 3.45
335 112 2 0.4238 4.2664904 3.45 4.027359
336 112 2 0.4238 2.6335096 3.45 4.027359
337 113 1 -0.8476 6.9 3.45 3.45
338 113 2 0.4238 7.7164904 3.45 4.027359
339 113 2 0.4238 6.0835096 3.45 4.027359
340 114 1 -0.8476 10.35 3.45 3.45
341 114 2 0.4238 11.1664904 3.45 4.027359
342 114 2 0.4238 9.5335096 3.45 4.027359
343 115 1 -0.8476 13.8 3.45 3.45
344 115 2 0.4238 14.6164904 3.45 4.027359
345 115 2 0.4238 12.9835096 3.45 4.027359
346 116 1 -0.8476 17.25 3.45 3.45
347 116 2 0.4238 18.0664904 3.45 4.027359
348 116 2 0.4238 16.4335096 3.45 4.027359
349 117 1 -0.8476 20.7 3.45 3.45
350 117 2 0.4238 21.5164904 3.45 4.027359
351 117 2 0.4238 19.8835096 3.45 4.027359
352 118 1 -0.8476 24.15 3.45 3.45
353 118 2 0.4238 24.9664904 3.45 4.027359
354 118 2 0.4238 23.3335096 3.45 4.027359
355 119 1 -0.8476 27.6 3.45 3.45
356 119 2 0.4238 28.4164904 3.45 4.027359
357 119 2 0.4238 26.7835096 3.45 4.027359
358 120 1 -0.8476 31.05 3.45 3.45
359 120 2 0.4238 31.8664904 3.45 4.027359
360 120 2 0.4238 30.2335096 3.45 4.027359
361 121 1 -0.8476 0.0 6.9 3.45
362 121 2 0.4238 0.8164904 6.9 4.027359
363 121 2 0.4238 -0.8164904 6.9 4.027359
364 122 1 -0.8476 3.45 6.9 3.45
365 122 2 0.4238 4.2664904 6.9 4.027359
366 122 2 0.4238 2.6335096 6.9 4.027359
367 123 1 -0.8476 6.9 6.9 3.45
368 123 2 0.4238 7.7164904 6.9 4.027359
369 123 2 0.4238 6.0835096 6.9 4.027359
370 124 1 -0.8476 10.35 6.9 3.45
371 124 2 0.4238 11.1664904 6.9 4.027359
372 124 2 0.4238 9.5335096 6.9 4.027359
373 125 1 -0.8476 13.8 6.9 3.45
374 125 2 0.4238 14.6164904 6.9 4.027359
375 125 2 0.4238 12.9835096 6.9 4.027359
376 126 1 -0.8476 17.25 6.9 3.45
377 126 2 0.4238 18.0664904 6.9 4.027359
378 126 2 0.4238 16.4335096 6.9 4.027359
379 127 1 -0.8476 20.7 6.9 3.45
380 127 2 0.4238 21.5164904 6.9 4.027359
381 127 2 0.4238 19.8835096 6.9 4.027359
382 128 1 -0.8476 24.15 6.9 3.45
383 128 2 0.4238 24.9664904 6.9 4.027359
384 128 2 0.4238 23.3335096 6.9 4.027359
385 129 1 -0.8476 27.6 6.9 3.45
386 129 2 0.4238 28.4164904 6.9 4.027359
387 129 2 0.4238 26.7835096 6.9 4.027359
388 130 1 -0.8476 31.05 6.9 3.45
389 130 2 0.4238 31.8664904 6.9 4.027359
390 130 2 0.4238 30.2335096 6.9 4.027359
391 131 1 -0.8476 0.0 10.35 3.45
392 131 2 0.4238 0.8164904 10.35 4.027359
393 131 2 0.4238 -0.8164904 10.35 4.027359
394 132 1 -0.8476 3.45 10.35 3.45
395 132 2 0.4238 4.2664904 10.35 4.027359
396 132 2 0.4238 2.6335096 10.35 4.027359
397 133 1 -0.8476 6.9 10.35 3.45
398 133 2 0.4238 7.7164904 10.35 4.027359
399 133 2 0.4238 6.0835096 10.35 4.027359
400 134 1 -0.8476 10.35 10.35 3.45
401 134 2 0.4238 11.1664904 10.35 4.027359
402 134 2 0.4238 9.5335096 10.35 4.027359
403 135 1 -0.8476 13.8 10.35 3.45
404 135 2 0.4238 14.6164904 10.35 4.027359
405 135 2 0.4238 12.9835096 10.35 4.027359
406 136 1 -0.8476 17.25 10.35 3.45
407 136 2 0.4238 18.0664904 10.35 4.027359
408 136 2 0.4238 16.4335096 10.35 4.027359
409 137 1 -0.8476 20.7 10.35 3.45
410 137 2 0.4238 21.5164904 10.35 4.027359
411 137 2 0.4238 19.8835096 10.35 4.027359
412 138 1 -0.8476 24.15 10.35 3.45
413 138 2 0.4238 24.9664904 10.35 4.027359
414 138 2 0.4238 23.3335096 10.35 4.027359
415 139 1 -0.8476 27.6 10.35 3.45
416 139 2 0.4238 28.4164904 10.35 4.027359
417 139 2 0.4238 26.7835096 10.35 4.027359
418 140 1 -0.8476 31.05 10.35 3.45
419 140 2 0.4238 31.8664904 10.35 4.027359
420 140 2 0.4238 30.2335096 10.35 4.027359
421 141 1 -0.8476 0.0 13.8 3.45
422 141 2 0.4238 0.8164904 13.8 4.027359
423 141 2 0.4238 -0.8164904 13.8 4.027359
424 142 1 -0.8476 3.45 13.8 3.45
425 142 2 0.4238 4.2664904 13.8 4.027359
426 142 2 0.4238 2.6335096 13.8 4.027359
427 143 1 -0.8476 6.9 13.8 3.45
428 143 2 0.4238 7.7164904 13.8 4.027359
429 143 2 0.4238 6.0835096 13.8 4.027359
430 144 1 -0.8476 10.35 13.8 3.45
431 144 2 0.4238 11.1664904 13.8 4.027359
432 144 2 0.4238 9.5335096 13.8 4.027359
433 145 1 -0.8476 13.8 13.8 3.45
434 145 2 0.4238 14.6164904 13.8 4.027359
435 145 2 0.4238 12.9835096 13.8 4.027359
436 146 1 -0.8476 17.25 13.8 3.45
437 146 2 0.4238 18.0664904 13.8 4.027359
438 146 2 0.4238 16.4335096 13.8 4.027359
439 147 1 -0.8476 20.7 13.8 3.45
440 147 2 0.4238 21.5164904 13.8 4.027359
441 147 2 0.4238 19.8835096 13.8 4.027359
442 148 1 -0.8476 24.15 13.8 3.45
443 148 2 0.4238 24.9664904 13.8 4.027359
444 148 2 0.4238 23.3335096 13.8 4.027359
445 149 1 -0.8476 27.6 13.8 3.45
446 149 2 0.4238 28.4164904 13.8 4.027359
447 149 2 0.4238 26.7835096 13.8 4.027359
448 150 1 -0.8476 31.05 13.8 3.45
449 150 2 0.4238 31.8664904 13.8 4.027359
450 150 2 0.4238 30.2335096 13.8 4.027359
451 151 1 -0.8476 0.0 17.25 3.45
452 151 2 0.4238 0.8164904 17.25 4.027359
453 151 2 0.4238 -0.8164904 17.25 4.027359
454 152 1 -0.8476 3.45 17.25 3.45
455 152 2 0.4238 4.2664904 17.25 4.027359
456 152 2 0.4238 2.6335096 17.25 4.027359
457 153 1 -0.8476 6.9 17.25 3.45
458 153 2 0.4238 7.7164904 17.25 4.027359
459 153 2 0.4238 6.0835096 17.25 4.027359
460 154 1 -0.8476 10.35 17.25 3.45
461 154 2 0.4238 11.1664904 17.25 4.027359
462 154 2 0.4238 9.5335096 17.25 4.027359
463 155 1 -0.8476 13.8 17.25 3.45
464 155 2 0.4238 14.6164904 17.25 4.027359
465 155 2 0.4238 12.9835096 17.25 4.027359
466 156 1 -0.8476 17.25 17.25 3.45
467 156 2 0.4238 18.0664904 17.25 4.027359
468 156 2 0.4238 16.4335096 17.25 4.027359
469 157 1 -0.8476 20.7 17.25 3.45
470 157 2 0.4238 21.5164904 17.25 4.027359
471 157 2 0.4238 19.8835096 17.25 4.027359
472 158 1 -0.8476 24.15 17.25 3.45
473 158 2 0.4238 24.9664904 17.25 4.027359
474 158 2 0.4238 23.3335096 17.25 4.027359
475 159 1 -0.8476 27.6 17.25 3.45
476 159 2 0.4238 28.4164904 17.25 4.027359
477 159 2 0.4238 26.7835096 17.25 4.027359
478 160 1 -0.8476 31.05 17.25 3.45
479 160 2 0.4238 31.8664904 17.25 4.027359
480 160 2 0.4238 30.2335096 17.25 4.027359
481 161 1 -0.8476 0.0 20.7 3.45
482 161 2 0.4238 0.8164904 20.7 4.027359
483 161 2 0.4238 -0.8164904 20.7 4.027359
484 162 1 -0.8476 3.45 20.7 3.45
485 162 2 0.4238 4.2664904 20.7 4.027359
486 162 2 0.4238 2.6335096 20.7 4.027359
487 163 1 -0.8476 6.9 20.7 3.45
488 163 2 0.4238 7.7164904 20.7 4.027359
489 163 2 0.4238 6.0835096 20.7 4.027359
490 164 1 -0.8476 10.35 20.7 3.45
491 164 2 0.4238 11.1664904 20.7 4.027359
492 164 2 0.4238 9.5335096 20.7 4.027359
493 165 1 -0.8476 13.8 20.7 3.45
494 165 2 0.4238 14.6164904 20.7 4.027359
495 165 2 0.4238 12.9835096 20.7 4.027359
496 166 1 -0.8476 17.25 20.7 3.45
497 166 2 0.4238 18.0664904 20.7 4.027359
498 166 2 0.4238 16.4335096 20.7 4.027359
499 167 1 -0.8476 20.7 20.7 3.45
500 167 2 0.4238 21.5164904 20.7 4.027359
501 167 2 0.4238 19.8835096 20.7 4.027359
502 168 1 -0.8476 24.15 20.7 3.45
503 168 2 0.4238 24.9664904 20.7 4.027359
504 168 2 0.4238 23.3335096 20.7 4.027359
505 169 1 -0.8476 27.6 20.7 3.45
506 169 2 0.4238 28.4164904 20.7 4.027359
507 169 2 0.4238 26.7835096 20.7 4.027359
508 170 1 -0.8476 31.05 20.7 3.45
509 170 2 0.4238 31.8664904 20.7 4.027359
510 170 2 0.4238 30.2335096 20.7 4.027359
511 171 1 -0.8476 0.0 24.15 3.45
512 171 2 0.4238 0.8164904 24.15 4.027359
513 171 2 0.4238 -0.8164904 24.15 4.027359
514 172 1 -0.8476 3.45 24.15 3.45
515 172 2 0.4238 4.2664904 24.15 4.027359
516 172 2 0.4238 2.6335096 24.15 4.027359
517 173 1 -0.8476 6.9 24.15 3.45
518 173 2 0.4238 7.7164904 24.15 4.027359
519 173 2 0.4238 6.0835096 24.15 4.027359
520 174 1 -0.8476 10.35 24.15 3.45
521 174 2 0.4238 11.1664904 24.15 4.027359
522 174 2 0.4238 9.5335096 24.15 4.027359
523 175 1 -0.8476 13.8 24.15 3.45
524 175 2 0.4238 14.6164904 24.15 4.027359
525 175 2 0.4238 12.9835096 24.15 4.027359
526 176 1 -0.8476 17.25 24.15 3.45
527 176 2 0.4238 18.0664904 24.15 4.027359
528 176 2 0.4238 16.4335096 24.15 4.027359
529 177 1 -0.8476 20.7 24.15 3.45
530 177 2 0.4238 21.5164904 24.15 4.027359
531 177 2 0.4238 19.8835096 24.15 4.027359
532 178 1 -0.8476 24.15 24.15 3.45
533 178 2 0.4238 24.9664904 24.15 4.027359
534 178 2 0.4238 23.3335096 24.15 4.027359
535 179 1 -0.8476 27.6 24.15 3.45
536 179 2 0.4238 28.4164904 24.15 4.027359
537 179 2 0.4238 26.7835096 24.15 4.027359
538 180 1 -0.8476 31.05 24.15 3.45
539 180 2 0.4238 31.8664904 24.15 4.027359
540 180 2 0.4238 30.2335096 24.15 4.027359
541 181 1 -0.8476 0.0 27.6 3.45
542 181 2 0.4238 0.8164904 27.6 4.027359
543 181 2 0.4238 -0.8164904 27.6 4.027359
544 182 1 -0.8476 3.45 27.6 3.45
545 182 2 0.4238 4.2664904 27.6 4.027359
546 182 2 0.4238 2.6335096 27.6 4.027359
547 183 1 -0.8476 6.9 27.6 3.45
548 183 2 0.4238 7.7164904 27.6 4.027359
549 183 2 0.4238 6.0835096 27.6 4.027359
550 184 1 -0.8476 10.35 27.6 3.45
551 184 2 0.4238 11.1664904 27.6 4.027359
552 184 2 0.4238 9.5335096 27.6 4.027359
553 185 1 -0.8476 13.8 27.6 3.45
554 185 2 0.4238 14.6164904 27.6 4.027359
555 185 2 0.4238 12.9835096 27.6 4.027359
556 186 1 -0.8476 17.25 27.6 3.45
557 186 2 0.4238 18.0664904 27.6 4.027359
558 186 2 0.4238 16.4335096 27.6 4.027359
559 187 1 -0.8476 20.7 27.6 3.45
560 187 2 0.4238 21.5164904 27.6 4.027359
561 187 2 0.4238 19.8835096 27.6 4.027359
562 188 1 -0.8476 24.15 27.6 3.45
563 188 2 0.4238 24.9664904 27.6 4.027359
564 188 2 0.4238 23.3335096 27.6 4.027359
565 189 1 -0.8476 27.6 27.6 3.45
566 189 2 0.4238 28.4164904 27.6 4.027359
567 189 2 0.4238 26.7835096 27.6 4.027359
568 190 1 -0.8476 31.05 27.6 3.45
569 190 2 0.4238 31.8664904 27.6 4.027359
570 190 2 0.4238 30.2335096 27.6 4.027359
571 191 1 -0.8476 0.0 31.05 3.45
572 191 2 0.4238 0.8164904 31.05 4.027359
573 191 2 0.4238 -0.8164904 31.05 4.027359
574 192 1 -0.8476 3.45 31.05 3.45
575 192 2 0.4238 4.2664904 31.05 4.027359
576 192 2 0.4238 2.6335096 31.05 4.027359
577 193 1 -0.8476 6.9 31.05 3.45
578 193 2 0.4238 7.7164904 31.05 4.027359
579 193 2 0.4238 6.0835096 31.05 4.027359
580 194 1 -0.8476 10.35 31.05 3.45
581 194 2 0.4238 11.1664904 31.05 4.027359
582 194 2 0.4238 9.5335096 31.05 4.027359
583 195 1 -0.8476 13.8 31.05 3.45
584 195 2 0.4238 14.6164904 31.05 4.027359
585 195 2 0.4238 12.9835096 31.05 4.027359
586 196 1 -0.8476 17.25 31.05 3.45
587 196 2 0.4238 18.0664904 31.05 4.027359
588 196 2 0.4238 16.4335096 31.05 4.027359
589 197 1 -0.8476 20.7 31.05 3.45
590 197 2 0.4238 21.5164904 31.05 4.027359
591 197 2 0.4238 19.8835096 31.05 4.027359
592 198 1 -0.8476 24.15 31.05 3.45
593 198 2 0.4238 24.9664904 31.05 4.027359
594 198 2 0.4238 23.3335096 31.05 4.027359
595 199 1 -0.8476 27.6 31.05 3.45
596 199 2 0.4238 28.4164904 31.05 4.027359
597 199 2 0.4238 26.7835096 31.05 4.027359
598 200 1 -0.8476 31.05 31.05 3.45
599 200 2 0.4238 31.8664904 31.05 4.027359
600 200 2 0.4238 30.2335096 31.05 4.027359
601 201 1 -0.8476 0.0 0.0 6.9
602 201 2 0.4238 0.8164904 0.0 7.477359
603 201 2 0.4238 -0.8164904 0.0 7.477359
604 202 1 -0.8476 3.45 0.0 6.9
605 202 2 0.4238 4.2664904 0.0 7.477359
606 202 2 0.4238 2.6335096 0.0 7.477359
607 203 1 -0.8476 6.9 0.0 6.9
608 203 2 0.4238 7.7164904 0.0 7.477359
609 203 2 0.4238 6.0835096 0.0 7.477359
610 204 1 -0.8476 10.35 0.0 6.9
611 204 2 0.4238 11.1664904 0.0 7.477359
612 204 2 0.4238 9.5335096 0.0 7.477359
613 205 1 -0.8476 13.8 0.0 6.9
614 205 2 0.4238 14.6164904 0.0 7.477359
615 205 2 0.4238 12.9835096 0.0 7.477359
616 206 1 -0.8476 17.25 0.0 6.9
617 206 2 0.4238 18.0664904 0.0 7.477359
618 206 2 0.4238 16.4335096 0.0 7.477359
619 207 1 -0.8476 20.7 0.0 6.9
620 207 2 0.4238 21.5164904 0.0 7.477359
621 207 2 0.4238 19.8835096 0.0 7.477359
622 208 1 -0.8476 24.15 0.0 6.9
623 208 2 0.4238 24.9664904 0.0 7.477359
624 208 2 0.4238 23.3335096 0.0 7.477359
625 209 1 -0.8476 27.6 0.0 6.9
626 209 2 0.4238 28.4164904 0.0 7.477359
627 209 2 0.4238 26.7835096 0.0 7.477359
628 210 1 -0.8476 31.05 0.0 6.9
629 210 2 0.4238 31.8664904 0.0 7.477359
630 210 2 0.4238 30.2335096 0.0 7.477359
631 211 1 -0.8476 0.0 3.45 6.9
632 211 2 0.4238 0.8164904 3.45 7.477359
633 211 2 0.4238 -0.8164904 3.45 7.477359
634 212 1 -0.8476 3.45 3.45 6.9
635 212 2 0.4238 4.2664904 3.45 7.477359
636 212 2 0.4238 2.6335096 3.45 7.477359
637 213 1 -0.8476 6.9 3.45 6.9
638 213 2 0.4238 7.7164904 3.45 7.477359
639 213 2 0.4238 6.0835096 3.45 7.477359
640 214 1 -0.8476 10.35 3.45 6.9
641 214 2 0.4238 11.1664904 3.45 7.477359
642 214 2 0.4238 9.5335096 3.45 7.477359
643 215 1 -0.8476 13.8 3.45 6.9
644 215 2 0.4238 14.6164904 3.45 7.477359
645 215 2 0.4238 12.9835096 3.45 7.477359
646 216 1 -0.8476 17.25 3.45 6.9
647 216 2 0.4238 18.0664904 3.45 7.477359
648 216 2 0.4238 16.4335096 3.45 7.477359
649 217 1 -0.8476 20.7 3.45 6.9
650 217 2 0.4238 21.5164904 3.45 7.477359
651 217 2 0.4238 19.8835096 3.45 7.477359
652 218 1 -0.8476 24.15 3.45 6.9
653 218 2 0.4238 24.9664904 3.45 7.477359
654 218 2 0.4238 23.3335096 3.45 7.477359
655 219 1 -0.8476 27.6 3.45 6.9
656 219 2 0.4238 28.4164904 3.45 7.477359
657 219 2 0.4238 26.7835096 3.45 7.477359
658 220 1 -0.8476 31.05 3.45 6.9
659 220 2 0.4238 31.8664904 3.45 7.477359
660 220 2 0.4238 30.2335096 3.45 7.477359
661 221 1 -0.8476 0.0 6.9 6.9
662 221 2 0.4238 0.8164904 6.9 7.477359
663 221 2 0.4238 -0.8164904 6.9 7.477359
664 222 1 -0.8476 3.45 6.9 6.9
665 222 2 0.4238 4.2664904 6.9 7.477359
666 222 2 0.4238 2.6335096 6.9 7.477359
667 223 1 -0.8476 6.9 6.9 6.9
668 223 2 0.4238 7.7164904 6.9 7.477359
669 223 2 0.4238 6.0835096 6.9 7.477359
670 224 1 -0.8476 10.35 6.9 6.9
671 224 2 0.4238 11.1664904 6.9 7.477359
672 224 2 0.4238 9.5335096 6.9 7.477359
673 225 1 -0.8476 13.8 6.9 6.9
674 225 2 0.4238 14.6164904 6.9 7.477359
675 225 2 0.4238 12.9835096 6.9 7.477359
676 226 1 -0.8476 17.25 6.9 6.9
677 226 2 0.4238 18.0664904 6.9 7.477359
678 226 2 0.4238 16.4335096 6.9 7.477359
679 227 1 -0.8476 20.7 6.9 6.9
680 227 2 0.4238 21.5164904 6.9 7.477359
681 227 2 0.4238 19.8835096 6.9 7.477359
682 228 1 -0.8476 24.15 6.9 6.9
683 228 2 0.4238 24.9664904 6.9 7.477359
684 228 2 0.4238 23.3335096 6.9 7.477359
685 229 1 -0.8476 27.6 6.9 6.9
686 229 2 0.4238 28.4164904 6.9 7.477359
687 229 2 0.4238 26.7835096 6.9 7.477359
688 230 1 -0.8476 31.05 6.9 6.9
689 230 2 0.4238 31.8664904 6.9 7.477359
690 230 2 0.4238 30.2335096 6.9 7.477359
691 231 1 -0.8476 0.0 10.35 6.9
692 231 2 0.4238 0.8164904 10.35 7.477359
693 231 2 0.4238 -0.8164904 10.35 7.477359
694 232 1 -0.8476 3.45 10.35 6.9
695 232 2 0.4238 4.2664904 10.35 7.477359
696 232 2 0.4238 2.6335096 10.35 7.477359
697 233 1 -0.8476 6.9 10.35 6.9
698 233 2 0.4238 7.7164904 10.35 7.477359
699 233 2 0.4238 6.0835096 10.35 7.477359
700 234 1 -0.8476 10.35 10.35 6.9
701 234 2 0.4238 11.1664904 10.35 7.477359
702 234 2 0.4238 9.5335096 10.35 7.477359
703 235 1 -0.8476 13.8 10.35 6.9
704 235 2 0.4238 14.6164904 10.35 7.477359
705 235 2 0.4238 12.9835096 10.35 7.477359
706 236 1 -0.8476 17.25 10.35 6.9
707 236 2 0.4238 18.0664904 10.35 7.477359
708 236 2 0.4238 16.4335096 10.35 7.477359
709 237 1 -0.8476 20.7 10.35 6.9
710 237 2 0.4238 21.5164904 10.35 7.477359
711 237 2 0.4238 19.8835096 10.35 7.477359
712 238 1 -0.8476 24.15 10.35 6.9
713 238 2 0.4238 24.9664904 10.35 7.477359
714 238 2 0.4238 23.3335096 10.35 7.477359
715 239 1 -0.8476 27.6 10.35 6.9
716 239 2 0.4238 28.4164904 10.35 7.477359
717 239 2 0.4238 26.7835096 10.35 7.477359
718 240 1 -0.8476 31.05 10.35 6.9
719 240 2 0.4238 31.8664904 10.35 7.477359
720 240 2 0.4238 30.2335096 10.35 7.477359
721 241 1 -0.8476 0.0 13.8 6.9
722 241 2 0.4238 0.8164904 13.8 7.477359
723 241 2 0.4238 -0.8164904 13.8 7.477359
724 242 1 -0.8476 3.45 13.8 6.9
725 242 2 0.4238 4.2664904 13.8 7.477359
726 242 2 0.4238 2.6335096 13.8 7.477359
727 243 1 -0.8476 6.9 13.8 6.9
728 243 2 0.4238 7.7164904 13.8 7.477359
729 243 2 0.4238 6.0835096 13.8 7.477359
730 244 1 -0.8476 10.35 13.8 6.9
731 244 2 0.4238 11.1664904 13.8 7.477359
732 244 2 0.4238 9.5335096 13.8 7.477359
733 245 1 -0.8476 13.8 13.8 6.9
734 245 2 0.4238 14.6164904 13.8 7.477359
735 245 2 0.4238 12.9835096 13.8 7.477359
736 246 1 -0.8476 17.25 13.8 6.9
737 246 2 0.4238 18.0664904 13.8 7.477359
738 246 2 0.4238 16.4335096 13.8 7.477359
739 247 1 -0.8476 20.7 13.8 6.9
740 247 2 0.4238 21.5164904 13.8 7.477359
741 247 2 0.4238 19.8835096 13.8 7.477359
742 248 1 -0.8476 24.15 13.8 6.9
743 248 2 0.4238 24.9664904 13.8 7.477359
744 248 2 0.4238 23.3335096 13.8 7.477359
745 249 1 -0.8476 27.6 13.8 6.9
746 249 2 0.4238 28.4164904 13.8 7.477359
747 249 2 0.4238 26.7835096 13.8 7.477359
748 250 1 -0.8476 31.05 13.8 6.9
749 250 2 0.4238 31.8664904 13.8 7.477359
750 250 2 0.4238 30.2335096 13.8 7.477359
751 251 1 -0.8476 0.0 17.25 6.9
752 251 2 0.4238 0.8164904 17.25 7.477359
753 251 2 0.4238 -0.8164904 17.25 7.477359
754 252 1 -0.8476 3.45 17.25 6.9
755 252 2 0.4238 4.2664904 17.25 7.477359
756 252 2 0.4238 2.6335096 17.25 7.477359
757 253 1 -0.8476 6.9 17.25 6.9
758 253 2 0.4238 7.7164904 17.25 7.477359
759 253 2 0.4238 6.0835096 17.25 7.477359
760 254 1 -0.8476 10.35 17.25 6.9
761 254 2 0.4238 11.1664904 17.25 7.477359
762 254 2 0.4238 9.5335096 17.25 7.477359
763 255 1 -0.8476 13.8 17.25 6.9
764 255 2 0.4238 14.6164904 17.25 7.477359
765 255 2 0.4238 12.9835096 17.25 7.477359
766 256 1 -0.8476 17.25 17.25 6.9
767 256 2 0.4238 18.0664904 17.25 7.477359
768 256 2 0.4238 16.4335096 17.25 7.477359
769 257 1 -0.8476 20.7 17.25 6.9
770 257 2 0.4238 21.5164904 17.25 7.477359
771 257 2 0.4238 19.8835096 17.25 7.477359
772 258 1 -0.8476 24.15 17.25 6.9
773 258 2 0.4238 24.9664904 17.25 7.477359
774 258 2 0.4238 23.3335096 17.25 7.477359
775 259 1 -0.8476 27.6 17.25 6.9
776 259 2 0.4238 28.4164904 17.25 7.477359