LAMMPS Description

     12000  atoms
     11000  bonds
     15000  angles
     16000  dihedrals
     6000  impropers

     71  atom types
     807  bond types
     4248  angle types
     641  dihedral types
     38  improper types

  0.0 80.00 xlo xhi
  0.0 80.00 ylo yhi
  0.0 80.00 zlo zhi

Masses

    1 12.01   # Sp2 C carbonyl group
    2 12.01   # Sp C
    3 12.01   # Sp2 C
    4 12.01   # Sp3 C
    5 12.01   # Sp2 C in pure aromatic systems
    6 12.01   # Head Sp2 C that connect two rings in biphenyl sys.
    7 12.01   # Head Sp2 C that connect two rings in biphenyl sys. identical to cp
    8 12.01   # Sp2 carbons in non-pure aromatic systems
    9 12.01   # Sp2 carbons in non-pure aromatic systems, identical to cc
    10 12.01   # Inner Sp2 carbons in conjugated systems
    11 12.01   # Inner Sp2 carbons in conjugated systems, identical to ce
    12 12.01   # Inner Sp carbons in conjugated systems
    13 12.01   # Inner Sp carbons in conjugated systems, identical to cg
    14 12.01   # Sp3 carbons in triangle systems
    15 12.01   # Sp3 carbons in square systems
    16 12.01   # Sp2 carbons in triangle systems
    17 12.01   # Sp2 carbons in square systems
    18 12.01   # Sp2 carbon in guanidine group
    19 1.008   # H bonded to aliphatic carbon with 1 electrwd. group
    20 1.008   # H bonded to aliphatic carbon with 2 electrwd. group
    21 1.008   # H bonded to aliphatic carbon with 3 electrwd. group
    22 1.008   # H bonded to non-sp3 carbon with 1 electrwd. group
    23 1.008   # H bonded to non-sp3 carbon with 2 electrwd. group
    24 1.008   # H bonded to aromatic carbon
    25 1.008   # H bonded to aliphatic carbon without electrwd. group
    26 1.008   # H bonded to nitrogen atoms
    27 1.008   # Hydroxyl group
    28 1.008   # H bonded to phosphate
    29 1.008   # Hydrogen bonded to sulphur
    30 1.008   # Hydrogen in water
    31 1.008   # H bonded to C next to positively charged group
    32 19.00   # Fluorine
    33 35.45   # Chlorine
    34 79.90   # Bromine
    35 126.9   # Iodine
    36 14.01   # Sp2 nitrogen in amide groups
    37 14.01   # Sp N
    38 14.01   # aliphatic Sp2 N with two connected atoms
    39 14.01   # Sp3 N with three connected atoms
    40 14.01   # Sp3 N with four connected atoms
    41 14.01   # Sp2 N with three connected atoms
    42 14.01   # Sp2 N in pure aromatic systems
    43 14.01   # Sp2 N in non-pure aromatic systems
    44 14.01   # Sp2 N in non-pure aromatic systems, identical to nc
    45 14.01   # Inner Sp2 N in conjugated systems
    46 14.01   # Inner Sp2 N in conjugated systems, identical to ne
    47 14.01   # Amine N connected one or more aromatic rings
    48 14.01   # Nitro N
    49 16.00   # Oxygen with one connected atom
    50 16.00   # Oxygen in hydroxyl group
    51 16.00   # Ether and ester oxygen
    52 16.00   # Oxygen in water
    53 30.97   # Phosphate with two connected atoms
    54 30.97   # Phosphate with three connected atoms, such as PH3
    55 30.97   # Phosphate with three connected atoms, such as O=P(CH3)2
    56 30.97   # Phosphate with four connected atoms, such as O=P(OH)3
    57 30.97   # Sp2 P in pure aromatic systems
    58 30.97   # Sp2 P in non-pure aromatic systems
    59 30.97   # Sp2 P in non-pure aromatic systems, identical to pc
    60 30.97   # Inner Sp2 P in conjugated systems
    61 30.97   # Inner Sp2 P in conjugated systems, identical to pe
    62 30.97   # Special p4 in conjugated systems
    63 30.97   # Special p5 in conjugated systems
    64 32.06   # S with one connected atom
    65 32.06   # S with two connected atom, involved at least one double bond
    66 32.06   # S with three connected atoms
    67 32.06   # S with four connected atoms
    68 32.06   # Sp3 S connected with hydrogen
    69 32.06   # Sp3 S in thio-ester and thio-ether
    70 32.06   # Special s4 in conjugated systems
    71 32.06   # Special s6 in conjugated systems

Atoms # full

1 1 3 -0.23 -0.6695 0.0 0.0
2 1 3 -0.23 0.6695 0.0 0.0
3 1 25 0.115 -1.234217 -0.854458 0.0
4 1 25 0.115 -1.234217 0.854458 0.0
5 1 25 0.115 1.234217 -0.854458 0.0
6 1 25 0.115 1.234217 0.854458 0.0
7 2 3 -0.23 -0.6695 0.0 8.0
8 2 3 -0.23 0.6695 0.0 8.0
9 2 25 0.115 -1.234217 -0.854458 8.0
10 2 25 0.115 -1.234217 0.854458 8.0
11 2 25 0.115 1.234217 -0.854458 8.0
12 2 25 0.115 1.234217 0.854458 8.0
13 3 3 -0.23 -0.6695 0.0 16.0
14 3 3 -0.23 0.6695 0.0 16.0
15 3 25 0.115 -1.234217 -0.854458 16.0
16 3 25 0.115 -1.234217 0.854458 16.0
17 3 25 0.115 1.234217 -0.854458 16.0
18 3 25 0.115 1.234217 0.854458 16.0
19 4 3 -0.23 -0.6695 0.0 24.0
20 4 3 -0.23 0.6695 0.0 24.0
21 4 25 0.115 -1.234217 -0.854458 24.0
22 4 25 0.115 -1.234217 0.854458 24.0
23 4 25 0.115 1.234217 -0.854458 24.0
24 4 25 0.115 1.234217 0.854458 24.0
25 5 3 -0.23 -0.6695 0.0 32.0
26 5 3 -0.23 0.6695 0.0 32.0
27 5 25 0.115 -1.234217 -0.854458 32.0
28 5 25 0.115 -1.234217 0.854458 32.0
29 5 25 0.115 1.234217 -0.854458 32.0
30 5 25 0.115 1.234217 0.854458 32.0
31 6 3 -0.23 -0.6695 0.0 40.0
32 6 3 -0.23 0.6695 0.0 40.0
33 6 25 0.115 -1.234217 -0.854458 40.0
34 6 25 0.115 -1.234217 0.854458 40.0
35 6 25 0.115 1.234217 -0.854458 40.0
36 6 25 0.115 1.234217 0.854458 40.0
37 7 3 -0.23 -0.6695 0.0 48.0
38 7 3 -0.23 0.6695 0.0 48.0
39 7 25 0.115 -1.234217 -0.854458 48.0
40 7 25 0.115 -1.234217 0.854458 48.0
41 7 25 0.115 1.234217 -0.854458 48.0
42 7 25 0.115 1.234217 0.854458 48.0
43 8 3 -0.23 -0.6695 0.0 56.0
44 8 3 -0.23 0.6695 0.0 56.0
45 8 25 0.115 -1.234217 -0.854458 56.0
46 8 25 0.115 -1.234217 0.854458 56.0
47 8 25 0.115 1.234217 -0.854458 56.0
48 8 25 0.115 1.234217 0.854458 56.0
49 9 3 -0.23 -0.6695 0.0 64.0
50 9 3 -0.23 0.6695 0.0 64.0
51 9 25 0.115 -1.234217 -0.854458 64.0
52 9 25 0.115 -1.234217 0.854458 64.0
53 9 25 0.115 1.234217 -0.854458 64.0
54 9 25 0.115 1.234217 0.854458 64.0
55 10 3 -0.23 -0.6695 0.0 72.0
56 10 3 -0.23 0.6695 0.0 72.0
57 10 25 0.115 -1.234217 -0.854458 72.0
58 10 25 0.115 -1.234217 0.854458 72.0
59 10 25 0.115 1.234217 -0.854458 72.0
60 10 25 0.115 1.234217 0.854458 72.0
61 11 3 -0.23 -0.6695 8.0 0.0
62 11 3 -0.23 0.6695 8.0 0.0
63 11 25 0.115 -1.234217 7.145542 0.0
64 11 25 0.115 -1.234217 8.854458 0.0
65 11 25 0.115 1.234217 7.145542 0.0
66 11 25 0.115 1.234217 8.854458 0.0
67 12 3 -0.23 -0.6695 8.0 8.0
68 12 3 -0.23 0.6695 8.0 8.0
69 12 25 0.115 -1.234217 7.145542 8.0
70 12 25 0.115 -1.234217 8.854458 8.0
71 12 25 0.115 1.234217 7.145542 8.0
72 12 25 0.115 1.234217 8.854458 8.0
73 13 3 -0.23 -0.6695 8.0 16.0
74 13 3 -0.23 0.6695 8.0 16.0
75 13 25 0.115 -1.234217 7.145542 16.0
76 13 25 0.115 -1.234217 8.854458 16.0
77 13 25 0.115 1.234217 7.145542 16.0
78 13 25 0.115 1.234217 8.854458 16.0
79 14 3 -0.23 -0.6695 8.0 24.0
80 14 3 -0.23 0.6695 8.0 24.0
81 14 25 0.115 -1.234217 7.145542 24.0
82 14 25 0.115 -1.234217 8.854458 24.0
83 14 25 0.115 1.234217 7.145542 24.0
84 14 25 0.115 1.234217 8.854458 24.0
85 15 3 -0.23 -0.6695 8.0 32.0
86 15 3 -0.23 0.6695 8.0 32.0
87 15 25 0.115 -1.234217 7.145542 32.0
88 15 25 0.115 -1.234217 8.854458 32.0
89 15 25 0.115 1.234217 7.145542 32.0
90 15 25 0.115 1.234217 8.854458 32.0
91 16 3 -0.23 -0.6695 8.0 40.0
92 16 3 -0.23 0.6695 8.0 40.0
93 16 25 0.115 -1.234217 7.145542 40.0
94 16 25 0.115 -1.234217 8.854458 40.0
95 16 25 0.115 1.234217 7.145542 40.0
96 16 25 0.115 1.234217 8.854458 40.0
97 17 3 -0.23 -0.6695 8.0 48.0
98 17 3 -0.23 0.6695 8.0 48.0
99 17 25 0.115 -1.234217 7.145542 48.0
100 17 25 0.115 -1.234217 8.854458 48.0
101 17 25 0.115 1.234217 7.145542 48.0
102 17 25 0.115 1.234217 8.854458 48.0
103 18 3 -0.23 -0.6695 8.0 56.0
104 18 3 -0.23 0.6695 8.0 56.0
105 18 25 0.115 -1.234217 7.145542 56.0
106 18 25 0.115 -1.234217 8.854458 56.0
107 18 25 0.115 1.234217 7.145542 56.0
108 18 25 0.115 1.234217 8.854458 56.0
109 19 3 -0.23 -0.6695 8.0 64.0
110 19 3 -0.23 0.6695 8.0 64.0
111 19 25 0.115 -1.234217 7.145542 64.0
112 19 25 0.115 -1.234217 8.854458 64.0
113 19 25 0.115 1.234217 7.145542 64.0
114 19 25 0.115 1.234217 8.854458 64.0
115 20 3 -0.23 -0.6695 8.0 72.0
116 20 3 -0.23 0.6695 8.0 72.0
117 20 25 0.115 -1.234217 7.145542 72.0
118 20 25 0.115 -1.234217 8.854458 72.0
119 20 25 0.115 1.234217 7.145542 72.0
120 20 25 0.115 1.234217 8.854458 72.0
121 21 3 -0.23 -0.6695 16.0 0.0
122 21 3 -0.23 0.6695 16.0 0.0
123 21 25 0.115 -1.234217 15.145542 0.0
124 21 25 0.115 -1.234217 16.854458 0.0
125 21 25 0.115 1.234217 15.145542 0.0
126 21 25 0.115 1.234217 16.854458 0.0
127 22 3 -0.23 -0.6695 16.0 8.0
128 22 3 -0.23 0.6695 16.0 8.0
129 22 25 0.115 -1.234217 15.145542 8.0
130 22 25 0.115 -1.234217 16.854458 8.0
131 22 25 0.115 1.234217 15.145542 8.0
132 22 25 0.115 1.234217 16.854458 8.0
133 23 3 -0.23 -0.6695 16.0 16.0
134 23 3 -0.23 0.6695 16.0 16.0
135 23 25 0.115 -1.234217 15.145542 16.0
136 23 25 0.115 -1.234217 16.854458 16.0
137 23 25 0.115 1.234217 15.145542 16.0
138 23 25 0.115 1.234217 16.854458 16.0
139 24 3 -0.23 -0.6695 16.0 24.0
140 24 3 -0.23 0.6695 16.0 24.0
141 24 25 0.115 -1.234217 15.145542 24.0
142 24 25 0.115 -1.234217 16.854458 24.0
143 24 25 0.115 1.234217 15.145542 24.0
144 24 25 0.115 1.234217 16.854458 24.0
145 25 3 -0.23 -0.6695 16.0 32.0
146 25 3 -0.23 0.6695 16.0 32.0
147 25 25 0.115 -1.234217 15.145542 32.0
148 25 25 0.115 -1.234217 16.854458 32.0
149 25 25 0.115 1.234217 15.145542 32.0
150 25 25 0.115 1.234217 16.854458 32.0
151 26 3 -0.23 -0.6695 16.0 40.0
152 26 3 -0.23 0.6695 16.0 40.0
153 26 25 0.115 -1.234217 15.145542 40.0
154 26 25 0.115 -1.234217 16.854458 40.0
155 26 25 0.115 1.234217 15.145542 40.0
156 26 25 0.115 1.234217 16.854458 40.0
157 27 3 -0.23 -0.6695 16.0 48.0
158 27 3 -0.23 0.6695 16.0 48.0
159 27 25 0.115 -1.234217 15.145542 48.0
160 27 25 0.115 -1.234217 16.854458 48.0
161 27 25 0.115 1.234217 15.145542 48.0
162 27 25 0.115 1.234217 16.854458 48.0
163 28 3 -0.23 -0.6695 16.0 56.0
164 28 3 -0.23 0.6695 16.0 56.0
165 28 25 0.115 -1.234217 15.145542 56.0
166 28 25 0.115 -1.234217 16.854458 56.0
167 28 25 0.115 1.234217 15.145542 56.0
168 28 25 0.115 1.234217 16.854458 56.0
169 29 3 -0.23 -0.6695 16.0 64.0
170 29 3 -0.23 0.6695 16.0 64.0
171 29 25 0.115 -1.234217 15.145542 64.0
172 29 25 0.115 -1.234217 16.854458 64.0
173 29 25 0.115 1.234217 15.145542 64.0
174 29 25 0.115 1.234217 16.854458 64.0
175 30 3 -0.23 -0.6695 16.0 72.0
176 30 3 -0.23 0.6695 16.0 72.0
177 30 25 0.115 -1.234217 15.145542 72.0
178 30 25 0.115 -1.234217 16.854458 72.0
179 30 25 0.115 1.234217 15.145542 72.0
180 30 25 0.115 1.234217 16.854458 72.0
181 31 3 -0.23 -0.6695 24.0 0.0
182 31 3 -0.23 0.6695 24.0 0.0
183 31 25 0.115 -1.234217 23.145542 0.0
184 31 25 0.115 -1.234217 24.854458 0.0
185 31 25 0.115 1.234217 23.145542 0.0
186 31 25 0.115 1.234217 24.854458 0.0
187 32 3 -0.23 -0.6695 24.0 8.0
188 32 3 -0.23 0.6695 24.0 8.0
189 32 25 0.115 -1.234217 23.145542 8.0
190 32 25 0.115 -1.234217 24.854458 8.0
191 32 25 0.115 1.234217 23.145542 8.0
192 32 25 0.115 1.234217 24.854458 8.0
193 33 3 -0.23 -0.6695 24.0 16.0
194 33 3 -0.23 0.6695 24.0 16.0
195 33 25 0.115 -1.234217 23.145542 16.0
196 33 25 0.115 -1.234217 24.854458 16.0
197 33 25 0.115 1.234217 23.145542 16.0
198 33 25 0.115 1.234217 24.854458 16.0
199 34 3 -0.23 -0.6695 24.0 24.0
200 34 3 -0.23 0.6695 24.0 24.0
201 34 25 0.115 -1.234217 23.145542 24.0
202 34 25 0.115 -1.234217 24.854458 24.0
203 34 25 0.115 1.234217 23.145542 24.0
204 34 25 0.115 1.234217 24.854458 24.0
205 35 3 -0.23 -0.6695 24.0 32.0
206 35 3 -0.23 0.6695 24.0 32.0
207 35 25 0.115 -1.234217 23.145542 32.0
208 35 25 0.115 -1.234217 24.854458 32.0
209 35 25 0.115 1.234217 23.145542 32.0
210 35 25 0.115 1.234217 24.854458 32.0
211 36 3 -0.23 -0.6695 24.0 40.0
212 36 3 -0.23 0.6695 24.0 40.0
213 36 25 0.115 -1.234217 23.145542 40.0
214 36 25 0.115 -1.234217 24.854458 40.0
215 36 25 0.115 1.234217 23.145542 40.0
216 36 25 0.115 1.234217 24.854458 40.0
217 37 3 -0.23 -0.6695 24.0 48.0
218 37 3 -0.23 0.6695 24.0 48.0
219 37 25 0.115 -1.234217 23.145542 48.0
220 37 25 0.115 -1.234217 24.854458 48.0
221 37 25 0.115 1.234217 23.145542 48.0
222 37 25 0.115 1.234217 24.854458 48.0
223 38 3 -0.23 -0.6695 24.0 56.0
224 38 3 -0.23 0.6695 24.0 56.0
225 38 25 0.115 -1.234217 23.145542 56.0
226 38 25 0.115 -1.234217 24.854458 56.0
227 38 25 0.115 1.234217 23.145542 56.0
228 38 25 0.115 1.234217 24.854458 56.0
229 39 3 -0.23 -0.6695 24.0 64.0
230 39 3 -0.23 0.6695 24.0 64.0
231 39 25 0.115 -1.234217 23.145542 64.0
232 39 25 0.115 -1.234217 24.854458 64.0
233 39 25 0.115 1.234217 23.145542 64.0
234 39 25 0.115 1.234217 24.854458 64.0
235 40 3 -0.23 -0.6695 24.0 72.0
236 40 3 -0.23 0.6695 24.0 72.0
237 40 25 0.115 -1.234217 23.145542 72.0
238 40 25 0.115 -1.234217 24.854458 72.0
239 40 25 0.115 1.234217 23.145542 72.0
240 40 25 0.115 1.234217 24.854458 72.0
241 41 3 -0.23 -0.6695 32.0 0.0
242 41 3 -0.23 0.6695 32.0 0.0
243 41 25 0.115 -1.234217 31.145542 0.0
244 41 25 0.115 -1.234217 32.854458 0.0
245 41 25 0.115 1.234217 31.145542 0.0
246 41 25 0.115 1.234217 32.854458 0.0
247 42 3 -0.23 -0.6695 32.0 8.0
248 42 3 -0.23 0.6695 32.0 8.0
249 42 25 0.115 -1.234217 31.145542 8.0
250 42 25 0.115 -1.234217 32.854458 8.0
251 42 25 0.115 1.234217 31.145542 8.0
252 42 25 0.115 1.234217 32.854458 8.0
253 43 3 -0.23 -0.6695 32.0 16.0
254 43 3 -0.23 0.6695 32.0 16.0
255 43 25 0.115 -1.234217 31.145542 16.0
256 43 25 0.115 -1.234217 32.854458 16.0
257 43 25 0.115 1.234217 31.145542 16.0
258 43 25 0.115 1.234217 32.854458 16.0
259 44 3 -0.23 -0.6695 32.0 24.0
260 44 3 -0.23 0.6695 32.0 24.0
261 44 25 0.115 -1.234217 31.145542 24.0
262 44 25 0.115 -1.234217 32.854458 24.0
263 44 25 0.115 1.234217 31.145542 24.0
264 44 25 0.115 1.234217 32.854458 24.0
265 45 3 -0.23 -0.6695 32.0 32.0
266 45 3 -0.23 0.6695 32.0 32.0
267 45 25 0.115 -1.234217 31.145542 32.0
268 45 25 0.115 -1.234217 32.854458 32.0
269 45 25 0.115 1.234217 31.145542 32.0
270 45 25 0.115 1.234217 32.854458 32.0
271 46 3 -0.23 -0.6695 32.0 40.0
272 46 3 -0.23 0.6695 32.0 40.0
273 46 25 0.115 -1.234217 31.145542 40.0
274 46 25 0.115 -1.234217 32.854458 40.0
275 46 25 0.115 1.234217 31.145542 40.0
276 46 25 0.115 1.234217 32.854458 40.0
277 47 3 -0.23 -0.6695 32.0 48.0
278 47 3 -0.23 0.6695 32.0 48.0
279 47 25 0.115 -1.234217 31.145542 48.0
280 47 25 0.115 -1.234217 32.854458 48.0
281 47 25 0.115 1.234217 31.145542 48.0
282 47 25 0.115 1.234217 32.854458 48.0
283 48 3 -0.23 -0.6695 32.0 56.0
284 48 3 -0.23 0.6695 32.0 56.0
285 48 25 0.115 -1.234217 31.145542 56.0
286 48 25 0.115 -1.234217 32.854458 56.0
287 48 25 0.115 1.234217 31.145542 56.0
288 48 25 0.115 1.234217 32.854458 56.0
289 49 3 -0.23 -0.6695 32.0 64.0
290 49 3 -0.23 0.6695 32.0 64.0
291 49 25 0.115 -1.234217 31.145542 64.0
292 49 25 0.115 -1.234217 32.854458 64.0
293 49 25 0.115 1.234217 31.145542 64.0
294 49 25 0.115 1.234217 32.854458 64.0
295 50 3 -0.23 -0.6695 32.0 72.0
296 50 3 -0.23 0.6695 32.0 72.0
297 50 25 0.115 -1.234217 31.145542 72.0
298 50 25 0.115 -1.234217 32.854458 72.0
299 50 25 0.115 1.234217 31.145542 72.0
300 50 25 0.115 1.234217 32.854458 72.0
301 51 3 -0.23 -0.6695 40.0 0.0
302 51 3 -0.23 0.6695 40.0 0.0
303 51 25 0.115 -1.234217 39.145542 0.0
304 51 25 0.115 -1.234217 40.854458 0.0
305 51 25 0.115 1.234217 39.145542 0.0
306 51 25 0.115 1.234217 40.854458 0.0
307 52 3 -0.23 -0.6695 40.0 8.0
308 52 3 -0.23 0.6695 40.0 8.0
309 52 25 0.115 -1.234217 39.145542 8.0
310 52 25 0.115 -1.234217 40.854458 8.0
311 52 25 0.115 1.234217 39.145542 8.0
312 52 25 0.115 1.234217 40.854458 8.0
313 53 3 -0.23 -0.6695 40.0 16.0
314 53 3 -0.23 0.6695 40.0 16.0
315 53 25 0.115 -1.234217 39.145542 16.0
316 53 25 0.115 -1.234217 40.854458 16.0
317 53 25 0.115 1.234217 39.145542 16.0
318 53 25 0.115 1.234217 40.854458 16.0
319 54 3 -0.23 -0.6695 40.0 24.0
320 54 3 -0.23 0.6695 40.0 24.0
321 54 25 0.115 -1.234217 39.145542 24.0
322 54 25 0.115 -1.234217 40.854458 24.0
323 54 25 0.115 1.234217 39.145542 24.0
324 54 25 0.115 1.234217 40.854458 24.0
325 55 3 -0.23 -0.6695 40.0 32.0
326 55 3 -0.23 0.6695 40.0 32.0
327 55 25 0.115 -1.234217 39.145542 32.0
328 55 25 0.115 -1.234217 40.854458 32.0
329 55 25 0.115 1.234217 39.145542 32.0
330 55 25 0.115 1.234217 40.854458 32.0
331 56 3 -0.23 -0.6695 40.0 40.0
332 56 3 -0.23 0.6695 40.0 40.0
333 56 25 0.115 -1.234217 39.145542 40.0
334 56 25 0.115 -1.234217 40.854458 40.0
335 56 25 0.115 1.234217 39.145542 40.0
336 56 25 0.115 1.234217 40.854458 40.0
337 57 3 -0.23 -0.6695 40.0 48.0
338 57 3 -0.23 0.6695 40.0 48.0
339 57 25 0.115 -1.234217 39.145542 48.0
340 57 25 0.115 -1.234217 40.854458 48.0
341 57 25 0.115 1.234217 39.145542 48.0
342 57 25 0.115 1.234217 40.854458 48.0
343 58 3 -0.23 -0.6695 40.0 56.0
344 58 3 -0.23 0.6695 40.0 56.0
345 58 25 0.115 -1.234217 39.145542 56.0
346 58 25 0.115 -1.234217 40.854458 56.0
347 58 25 0.115 1.234217 39.145542 56.0
348 58 25 0.115 1.234217 40.854458 56.0
349 59 3 -0.23 -0.6695 40.0 64.0
350 59 3 -0.23 0.6695 40.0 64.0
351 59 25 0.115 -1.234217 39.145542 64.0
352 59 25 0.115 -1.234217 40.854458 64.0
353 59 25 0.115 1.234217 39.145542 64.0
354 59 25 0.115 1.234217 40.854458 64.0
355 60 3 -0.23 -0.6695 40.0 72.0
356 60 3 -0.23 0.6695 40.0 72.0
357 60 25 0.115 -1.234217 39.145542 72.0
358 60 25 0.115 -1.234217 40.854458 72.0
359 60 25 0.115 1.234217 39.145542 72.0
360 60 25 0.115 1.234217 40.854458 72.0
361 61 3 -0.23 -0.6695 48.0 0.0
362 61 3 -0.23 0.6695 48.0 0.0
363 61 25 0.115 -1.234217 47.145542 0.0
364 61 25 0.115 -1.234217 48.854458 0.0
365 61 25 0.115 1.234217 47.145542 0.0
366 61 25 0.115 1.234217 48.854458 0.0
367 62 3 -0.23 -0.6695 48.0 8.0
368 62 3 -0.23 0.6695 48.0 8.0
369 62 25 0.115 -1.234217 47.145542 8.0
370 62 25 0.115 -1.234217 48.854458 8.0
371 62 25 0.115 1.234217 47.145542 8.0
372 62 25 0.115 1.234217 48.854458 8.0
373 63 3 -0.23 -0.6695 48.0 16.0
374 63 3 -0.23 0.6695 48.0 16.0
375 63 25 0.115 -1.234217 47.145542 16.0
376 63 25 0.115 -1.234217 48.854458 16.0
377 63 25 0.115 1.234217 47.145542 16.0
378 63 25 0.115 1.234217 48.854458 16.0
379 64 3 -0.23 -0.6695 48.0 24.0
380 64 3 -0.23 0.6695 48.0 24.0
381 64 25 0.115 -1.234217 47.145542 24.0
382 64 25 0.115 -1.234217 48.854458 24.0
383 64 25 0.115 1.234217 47.145542 24.0
384 64 25 0.115 1.234217 48.854458 24.0
385 65 3 -0.23 -0.6695 48.0 32.0
386 65 3 -0.23 0.6695 48.0 32.0
387 65 25 0.115 -1.234217 47.145542 32.0
388 65 25 0.115 -1.234217 48.854458 32.0
389 65 25 0.115 1.234217 47.145542 32.0
390 65 25 0.115 1.234217 48.854458 32.0
391 66 3 -0.23 -0.6695 48.0 40.0
392 66 3 -0.23 0.6695 48.0 40.0
393 66 25 0.115 -1.234217 47.145542 40.0
394 66 25 0.115 -1.234217 48.854458 40.0
395 66 25 0.115 1.234217 47.145542 40.0
396 66 25 0.115 1.234217 48.854458 40.0
397 67 3 -0.23 -0.6695 48.0 48.0
398 67 3 -0.23 0.6695 48.0 48.0
399 67 25 0.115 -1.234217 47.145542 48.0
400 67 25 0.115 -1.234217 48.854458 48.0
401 67 25 0.115 1.234217 47.145542 48.0
402 67 25 0.115 1.234217 48.854458 48.0
403 68 3 -0.23 -0.6695 48.0 56.0
404 68 3 -0.23 0.6695 48.0 56.0
405 68 25 0.115 -1.234217 47.145542 56.0
406 68 25 0.115 -1.234217 48.854458 56.0
407 68 25 0.115 1.234217 47.145542 56.0
408 68 25 0.115 1.234217 48.854458 56.0
409 69 3 -0.23 -0.6695 48.0 64.0
410 69 3 -0.23 0.6695 48.0 64.0
411 69 25 0.115 -1.234217 47.145542 64.0
412 69 25 0.115 -1.234217 48.854458 64.0
413 69 25 0.115 1.234217 47.145542 64.0
414 69 25 0.115 1.234217 48.854458 64.0
415 70 3 -0.23 -0.6695 48.0 72.0
416 70 3 -0.23 0.6695 48.0 72.0
417 70 25 0.115 -1.234217 47.145542 72.0
418 70 25 0.115 -1.234217 48.854458 72.0
419 70 25 0.115 1.234217 47.145542 72.0
420 70 25 0.115 1.234217 48.854458 72.0
421 71 3 -0.23 -0.6695 56.0 0.0
422 71 3 -0.23 0.6695 56.0 0.0
423 71 25 0.115 -1.234217 55.145542 0.0
424 71 25 0.115 -1.234217 56.854458 0.0
425 71 25 0.115 1.234217 55.145542 0.0
426 71 25 0.115 1.234217 56.854458 0.0
427 72 3 -0.23 -0.6695 56.0 8.0
428 72 3 -0.23 0.6695 56.0 8.0
429 72 25 0.115 -1.234217 55.145542 8.0
430 72 25 0.115 -1.234217 56.854458 8.0
431 72 25 0.115 1.234217 55.145542 8.0
432 72 25 0.115 1.234217 56.854458 8.0
433 73 3 -0.23 -0.6695 56.0 16.0
434 73 3 -0.23 0.6695 56.0 16.0
435 73 25 0.115 -1.234217 55.145542 16.0
436 73 25 0.115 -1.234217 56.854458 16.0
437 73 25 0.115 1.234217 55.145542 16.0
438 73 25 0.115 1.234217 56.854458 16.0
439 74 3 -0.23 -0.6695 56.0 24.0
440 74 3 -0.23 0.6695 56.0 24.0
441 74 25 0.115 -1.234217 55.145542 24.0
442 74 25 0.115 -1.234217 56.854458 24.0
443 74 25 0.115 1.234217 55.145542 24.0
444 74 25 0.115 1.234217 56.854458 24.0
445 75 3 -0.23 -0.6695 56.0 32.0
446 75 3 -0.23 0.6695 56.0 32.0
447 75 25 0.115 -1.234217 55.145542 32.0
448 75 25 0.115 -1.234217 56.854458 32.0
449 75 25 0.115 1.234217 55.145542 32.0
450 75 25 0.115 1.234217 56.854458 32.0
451 76 3 -0.23 -0.6695 56.0 40.0
452 76 3 -0.23 0.6695 56.0 40.0
453 76 25 0.115 -1.234217 55.145542 40.0
454 76 25 0.115 -1.234217 56.854458 40.0
455 76 25 0.115 1.234217 55.145542 40.0
456 76 25 0.115 1.234217 56.854458 40.0
457 77 3 -0.23 -0.6695 56.0 48.0
458 77 3 -0.23 0.6695 56.0 48.0
459 77 25 0.115 -1.234217 55.145542 48.0
460 77 25 0.115 -1.234217 56.854458 48.0
461 77 25 0.115 1.234217 55.145542 48.0
462 77 25 0.115 1.234217 56.854458 48.0
463 78 3 -0.23 -0.6695 56.0 56.0
464 78 3 -0.23 0.6695 56.0 56.0
465 78 25 0.115 -1.234217 55.145542 56.0
466 78 25 0.115 -1.234217 56.854458 56.0
467 78 25 0.115 1.234217 55.145542 56.0
468 78 25 0.115 1.234217 56.854458 56.0
469 79 3 -0.23 -0.6695 56.0 64.0
470 79 3 -0.23 0.6695 56.0 64.0
471 79 25 0.115 -1.234217 55.145542 64.0
472 79 25 0.115 -1.234217 56.854458 64.0
473 79 25 0.115 1.234217 55.145542 64.0
474 79 25 0.115 1.234217 56.854458 64.0
475 80 3 -0.23 -0.6695 56.0 72.0
476 80 3 -0.23 0.6695 56.0 72.0
477 80 25 0.115 -1.234217 55.145542 72.0
478 80 25 0.115 -1.234217 56.854458 72.0
479 80 25 0.115 1.234217 55.145542 72.0
480 80 25 0.115 1.234217 56.854458 72.0
481 81 3 -0.23 -0.6695 64.0 0.0
482 81 3 -0.23 0.6695 64.0 0.0
483 81 25 0.115 -1.234217 63.145542 0.0
484 81 25 0.115 -1.234217 64.854458 0.0
485 81 25 0.115 1.234217 63.145542 0.0
486 81 25 0.115 1.234217 64.854458 0.0
487 82 3 -0.23 -0.6695 64.0 8.0
488 82 3 -0.23 0.6695 64.0 8.0
489 82 25 0.115 -1.234217 63.145542 8.0
490 82 25 0.115 -1.234217 64.854458 8.0
491 82 25 0.115 1.234217 63.145542 8.0
492 82 25 0.115 1.234217 64.854458 8.0
493 83 3 -0.23 -0.6695 64.0 16.0
494 83 3 -0.23 0.6695 64.0 16.0
495 83 25 0.115 -1.234217 63.145542 16.0
496 83 25 0.115 -1.234217 64.854458 16.0
497 83 25 0.115 1.234217 63.145542 16.0
498 83 25 0.115 1.234217 64.854458 16.0
499 84 3 -0.23 -0.6695 64.0 24.0
500 84 3 -0.23 0.6695 64.0 24.0
501 84 25 0.115 -1.234217 63.145542 24.0
502 84 25 0.115 -1.234217 64.854458 24.0
503 84 25 0.115 1.234217 63.145542 24.0
504 84 25 0.115 1.234217 64.854458 24.0
505 85 3 -0.23 -0.6695 64.0 32.0
506 85 3 -0.23 0.6695 64.0 32.0
507 85 25 0.115 -1.234217 63.145542 32.0
508 85 25 0.115 -1.234217 64.854458 32.0
509 85 25 0.115 1.234217 63.145542 32.0
510 85 25 0.115 1.234217 64.854458 32.0
511 86 3 -0.23 -0.6695 64.0 40.0
512 86 3 -0.23 0.6695 64.0 40.0
513 86 25 0.115 -1.234217 63.145542 40.0
514 86 25 0.115 -1.234217 64.854458 40.0
515 86 25 0.115 1.234217 63.145542 40.0
516 86 25 0.115 1.234217 64.854458 40.0
517 87 3 -0.23 -0.6695 64.0 48.0
518 87 3 -0.23 0.6695 64.0 48.0
519 87 25 0.115 -1.234217 63.145542 48.0
520 87 25 0.115 -1.234217 64.854458 48.0
521 87 25 0.115 1.234217 63.145542 48.0
522 87 25 0.115 1.234217 64.854458 48.0
523 88 3 -0.23 -0.6695 64.0 56.0
524 88 3 -0.23 0.6695 64.0 56.0
525 88 25 0.115 -1.234217 63.145542 56.0
526 88 25 0.115 -1.234217 64.854458 56.0
527 88 25 0.115 1.234217 63.145542 56.0
528 88 25 0.115 1.234217 64.854458 56.0
529 89 3 -0.23 -0.6695 64.0 64.0
530 89 3 -0.23 0.6695 64.0 64.0
531 89 25 0.115 -1.234217 63.145542 64.0
532 89 25 0.115 -1.234217 64.854458 64.0
533 89 25 0.115 1.234217 63.145542 64.0
534 89 25 0.115 1.234217 64.854458 64.0
535 90 3 -0.23 -0.6695 64.0 72.0
536 90 3 -0.23 0.6695 64.0 72.0
537 90 25 0.115 -1.234217 63.145542 72.0
538 90 25 0.115 -1.234217 64.854458 72.0
539 90 25 0.115 1.234217 63.145542 72.0
540 90 25 0.115 1.234217 64.854458 72.0
541 91 3 -0.23 -0.6695 72.0 0.0
542 91 3 -0.23 0.6695 72.0 0.0
543 91 25 0.115 -1.234217 71.145542 0.0
544 91 25 0.115 -1.234217 72.854458 0.0
545 91 25 0.115 1.234217 71.145542 0.0
546 91 25 0.115 1.234217 72.854458 0.0
547 92 3 -0.23 -0.6695 72.0 8.0
548 92 3 -0.23 0.6695 72.0 8.0
549 92 25 0.115 -1.234217 71.145542 8.0
550 92 25 0.115 -1.234217 72.854458 8.0
551 92 25 0.115 1.234217 71.145542 8.0
552 92 25 0.115 1.234217 72.854458 8.0
553 93 3 -0.23 -0.6695 72.0 16.0
554 93 3 -0.23 0.6695 72.0 16.0
555 93 25 0.115 -1.234217 71.145542 16.0
556 93 25 0.115 -1.234217 72.854458 16.0
557 93 25 0.115 1.234217 71.145542 16.0
558 93 25 0.115 1.234217 72.854458 16.0
559 94 3 -0.23 -0.6695 72.0 24.0
560 94 3 -0.23 0.6695 72.0 24.0
561 94 25 0.115 -1.234217 71.145542 24.0
562 94 25 0.115 -1.234217 72.854458 24.0
563 94 25 0.115 1.234217 71.145542 24.0
564 94 25 0.115 1.234217 72.854458 24.0
565 95 3 -0.23 -0.6695 72.0 32.0
566 95 3 -0.23 0.6695 72.0 32.0
567 95 25 0.115 -1.234217 71.145542 32.0
568 95 25 0.115 -1.234217 72.854458 32.0
569 95 25 0.115 1.234217 71.145542 32.0
570 95 25 0.115 1.234217 72.854458 32.0
571 96 3 -0.23 -0.6695 72.0 40.0
572 96 3 -0.23 0.6695 72.0 40.0
573 96 25 0.115 -1.234217 71.145542 40.0
574 96 25 0.115 -1.234217 72.854458 40.0
575 96 25 0.115 1.234217 71.145542 40.0
576 96 25 0.115 1.234217 72.854458 40.0
577 97 3 -0.23 -0.6695 72.0 48.0
578 97 3 -0.23 0.6695 72.0 48.0
579 97 25 0.115 -1.234217 71.145542 48.0
580 97 25 0.115 -1.234217 72.854458 48.0
581 97 25 0.115 1.234217 71.145542 48.0
582 97 25 0.115 1.234217 72.854458 48.0
583 98 3 -0.23 -0.6695 72.0 56.0
584 98 3 -0.23 0.6695 72.0 56.0
585 98 25 0.115 -1.234217 71.145542 56.0
586 98 25 0.115 -1.234217 72.854458 56.0
587 98 25 0.115 1.234217 71.145542 56.0
588 98 25 0.115 1.234217 72.854458 56.0
589 99 3 -0.23 -0.6695 72.0 64.0
590 99 3 -0.23 0.6695 72.0 64.0
591 99 25 0.115 -1.234217 71.145542 64.0
592 99 25 0.115 -1.234217 72.854458 64.0
593 99 25 0.115 1.234217 71.145542 64.0
594 99 25 0.115 1.234217 72.854458 64.0
595 100 3 -0.23 -0.6695 72.0 72.0
596 100 3 -0.23 0.6695 72.0 72.0
597 100 25 0.115 -1.234217 71.145542 72.0
598 100 25 0.115 -1.234217 72.854458 72.0
599 100 25 0.115 1.234217 71.145542 72.0
600 100 25 0.115 1.234217 72.854458 72.0
601 101 3 -0.23 7.3305 0.0 0.0
602 101 3 -0.23 8.6695 0.0 0.0
603 101 25 0.115 6.765783 -0.854458 0.0
604 101 25 0.115 6.765783 0.854458 0.0
605 101 25 0.115 9.234217 -0.854458 0.0
606 101 25 0.115 9.234217 0.854458 0.0
607 102 3 -0.23 7.3305 0.0 8.0
608 102 3 -0.23 8.6695 0.0 8.0
609 102 25 0.115 6.765783 -0.854458 8.0
610 102 25 0.115 6.765783 0.854458 8.0
611 102 25 0.115 9.234217 -0.854458 8.0
612 102 25 0.115 9.234217 0.854458 8.0
613 103 3 -0.23 7.3305 0.0 16.0
614 103 3 -0.23 8.6695 0.0 16.0
615 103 25 0.115 6.765783 -0.854458 16.0
616 103 25 0.115 6.765783 0.854458 16.0
617 103 25 0.115 9.234217 -0.854458 16.0
618 103 25 0.115 9.234217 0.854458 16.0
619 104 3 -0.23 7.3305 0.0 24.0
620 104 3 -0.23 8.6695 0.0 24.0
621 104 25 0.115 6.765783 -0.854458 24.0
622 104 25 0.115 6.765783 0.854458 24.0
623 104 25 0.115 9.234217 -0.854458 24.0
624 104 25 0.115 9.234217 0.854458 24.0
625 105 3 -0.23 7.3305 0.0 32.0
626 105 3 -0.23 8.6695 0.0 32.0
627 105 25 0.115 6.765783 -0.854458 32.0
628 105 25 0.115 6.765783 0.854458 32.0
629 105 25 0.115 9.234217 -0.854458 32.0
630 105 25 0.115 9.234217 0.854458 32.0
631 106 3 -0.23 7.3305 0.0 40.0
632 106 3 -0.23 8.6695 0.0 40.0
633 106 25 0.115 6.765783 -0.854458 40.0
634 106 25 0.115 6.765783 0.854458 40.0
635 106 25 0.115 9.234217 -0.854458 40.0
636 106 25 0.115 9.234217 0.854458 40.0
637 107 3 -0.23 7.3305 0.0 48.0
638 107 3 -0.23 8.6695 0.0 48.0
639 107 25 0.115 6.765783 -0.854458 48.0
640 107 25 0.115 6.765783 0.854458 48.0
641 107 25 0.115 9.234217 -0.854458 48.0
642 107 25 0.115 9.234217 0.854458 48.0
643 108 3 -0.23 7.3305 0.0 56.0
644 108 3 -0.23 8.6695 0.0 56.0
645 108 25 0.115 6.765783 -0.854458 56.0
646 108 25 0.115 6.765783 0.854458 56.0
647 108 25 0.115 9.234217 -0.854458 56.0
648 108 25 0.115 9.234217 0.854458 56.0
649 109 3 -0.23 7.3305 0.0 64.0
650 109 3 -0.23 8.6695 0.0 64.0
651 109 25 0.115 6.765783 -0.854458 64.0
652 109 25 0.115 6.765783 0.854458 64.0
653 109 25 0.115 9.234217 -0.854458 64.0
654 109 25 0.115 9.234217 0.854458 64.0
655 110 3 -0.23 7.3305 0.0 72.0
656 110 3 -0.23 8.6695 0.0 72.0
657 110 25 0.115 6.765783 -0.854458 72.0
658 110 25 0.115 6.765783 0.854458 72.0
659 110 25 0.115 9.234217 -0.854458 72.0
660 110 25 0.115 9.234217 0.854458 72.0
661 111 3 -0.23 7.3305 8.0 0.0
662 111 3 -0.23 8.6695 8.0 0.0
663 111 25 0.115 6.765783 7.145542 0.0
664 111 25 0.115 6.765783 8.854458 0.0
665 111 25 0.115 9.234217 7.145542 0.0
666 111 25 0.115 9.234217 8.854458 0.0
667 112 3 -0.23 7.3305 8.0 8.0
668 112 3 -0.23 8.6695 8.0 8.0
669 112 25 0.115 6.765783 7.145542 8.0
670 112 25 0.115 6.765783 8.854458 8.0
671 112 25 0.115 9.234217 7.145542 8.0
672 112 25 0.115 9.234217 8.854458 8.0
673 113 3 -0.23 7.3305 8.0 16.0
674 113 3 -0.23 8.6695 8.0 16.0
675 113 25 0.115 6.765783 7.145542 16.0
676 113 25 0.115 6.765783 8.854458 16.0
677 113 25 0.115 9.234217 7.145542 16.0
678 113 25 0.115 9.234217 8.854458 16.0
679 114 3 -0.23 7.3305 8.0 24.0
680 114 3 -0.23 8.6695 8.0 24.0
681 114 25 0.115 6.765783 7.145542 24.0
682 114 25 0.115 6.765783 8.854458 24.0
683 114 25 0.115 9.234217 7.145542 24.0
684 114 25 0.115 9.234217 8.854458 24.0
685 115 3 -0.23 7.3305 8.0 32.0
686 115 3 -0.23 8.6695 8.0 32.0
687 115 25 0.115 6.765783 7.145542 32.0
688 115 25 0.115 6.765783 8.854458 32.0
689 115 25 0.115 9.234217 7.145542 32.0
690 115 25 0.115 9.234217 8.854458 32.0
691 116 3 -0.23 7.3305 8.0 40.0
692 116 3 -0.23 8.6695 8.0 40.0
693 116 25 0.115 6.765783 7.145542 40.0
694 116 25 0.115 6.765783 8.854458 40.0
695 116 25 0.115 9.234217 7.145542 40.0
696 116 25 0.115 9.234217 8.854458 40.0
697 117 3 -0.23 7.3305 8.0 48.0
698 117 3 -0.23 8.6695 8.0 48.0
699 117 25 0.115 6.765783 7.145542 48.0
700 117 25 0.115 6.765783 8.854458 48.0