LAMMPS Description

     32768  atoms
     53242  bonds
     32766  angles
     0  dihedrals
     0  impropers

     2  atom types
     3  bond types
     1  angle types

  -88.1906966819 90.877144767 xlo xhi
  -90.4708974472 90.2316521158 ylo yhi
  -91.9521694477 87.7967193918 zlo zhi

Masses

    1     1.0
    2     1.0

Atoms # full

1 1 1 0.000 -41.8821872922 0.950605607717 -17.1190806347
2 2 1 0.000 -43.2656635114 0.829852317484 -17.7984272292
3 3 1 0.000 -43.1632917785 -0.565267066515 -16.8441995735
4 4 1 0.000 -44.5074067143 0.146313713949 -16.1384987371
5 5 1 0.000 -44.650921517 0.880016086401 -14.7026379951
6 6 1 0.000 -43.6589523839 2.10887389539 -14.6184080883
7 7 1 0.000 -44.9928625425 2.72417336456 -13.776303397
8 8 1 0.000 -45.9979521035 3.89493667296 -14.4359207556
9 9 1 0.000 -46.3478301779 5.13698763902 -15.290416962
10 10 1 0.000 -47.9324862898 4.74739192396 -15.7767312874
11 11 2 0.000 -48.5109189767 4.70279866753 -14.232878086
12 12 1 0.000 -47.8924770841 6.19669705492 -13.8988417133
13 13 1 0.000 -47.7199677558 7.60704585399 -14.7017794979
14 14 1 0.000 -47.6052854981 9.18399168988 -14.6341526016
15 15 1 0.000 -48.866790333 9.64208899646 -15.5158777452
16 16 1 0.000 -48.1490543387 11.0595649415 -15.5889957835
17 17 1 0.000 -47.5923270509 10.9007591711 -17.1778795889
18 18 1 0.000 -47.5184639018 11.5254859106 -18.6684249781
19 19 1 0.000 -46.4249329387 11.3686563033 -19.8282060025
20 20 1 0.000 -47.6658662387 11.726309446 -20.8642338561
21 21 1 0.000 -46.8081790147 12.8831586218 -21.2769603995
22 22 1 0.000 -45.4541832629 13.6310230058 -21.6551850771
23 23 1 0.000 -45.5001857504 12.6864655913 -23.0091808289
24 24 1 0.000 -46.8410610744 12.3166477063 -23.9097929093
25 25 1 0.000 -46.291298952 12.5182487486 -25.3711817923
26 26 1 0.000 -46.6651501537 13.9588393238 -25.5441770624
27 27 1 0.000 -45.0779023523 14.1270237704 -25.0154724167
28 28 1 0.000 -43.8512233442 14.7574198306 -25.6460628535
29 29 1 0.000 -44.7929784945 15.8519550733 -26.4622830465
30 30 1 0.000 -44.999017805 16.3244038602 -24.9463067047
31 31 1 0.000 -44.4259304775 17.8343869202 -24.7516060355
32 32 1 0.000 -43.3443860781 18.2106678308 -25.8726736989
33 33 1 0.000 -41.8110778132 17.4581060096 -26.0283370459
34 34 1 0.000 -42.0224624831 15.7797603244 -26.0872979807
35 35 1 0.000 -41.2349128545 14.3304389954 -26.0132728511
36 36 1 0.000 -40.578891465 13.5856522425 -27.2256975672
37 37 1 0.000 -39.5600335539 14.6514845247 -27.8720001213
38 38 1 0.000 -38.6916556109 15.8123022249 -28.3681466685
39 39 1 0.000 -39.5085237263 16.2749997802 -27.0352083934
40 40 1 0.000 -40.5025986071 16.0327092137 -25.9212678759
41 41 1 0.000 -39.3424936216 16.2677106537 -24.7439929478
42 42 2 0.000 -38.4690942803 17.5880144428 -24.1903432912
43 43 1 0.000 -38.0108511912 16.5257457336 -23.05064786
44 44 1 0.000 -36.5541597453 15.8501894849 -23.3796304382
45 45 1 0.000 -36.2514180226 16.7920418235 -22.1108364768
46 46 1 0.000 -35.9710296213 18.1794055769 -22.8013597319
47 47 1 0.000 -35.9279427844 18.990442391 -24.2016819325
48 48 1 0.000 -35.25410353 20.4858471979 -23.9376535708
49 49 1 0.000 -33.8852055639 20.7864831729 -23.0355836651
50 50 1 0.000 -33.4235608824 21.1326356938 -24.597724475
51 51 1 0.000 -32.545464104 21.9404328961 -23.5335119987
52 52 1 0.000 -31.2595002 22.5379792926 -24.3103709084
53 53 1 0.000 -31.4279600136 21.1668135983 -25.1552616658
54 54 1 0.000 -30.0039886469 21.5607503931 -24.5407073074
55 55 1 0.000 -30.3852909557 20.6705050705 -23.2182977706
56 56 1 0.000 -29.3687007729 21.4646959033 -22.4581228617
57 57 1 0.000 -28.6266676901 20.3489735993 -21.3595705004
58 58 1 0.000 -27.0888239687 19.8857091119 -20.963042016
59 59 1 0.000 -26.5892758291 21.0263764267 -19.8583343922
60 60 1 0.000 -26.7510944385 20.4281821078 -18.3789656638
61 61 1 0.000 -27.9897600102 21.537101227 -18.2550505124
62 62 1 0.000 -29.3079580516 22.4096906653 -18.2667131149
63 63 1 0.000 -30.9523850013 22.815937985 -18.2487332694
64 64 1 0.000 -32.5352593268 22.5912709067 -18.2718964938
65 65 1 0.000 -33.4817119142 21.3629720927 -18.0948517089
66 66 1 0.000 -34.1992859279 22.1555431196 -16.9794533662
67 67 1 0.000 -33.6197193769 22.8267906846 -15.655019072
68 68 1 0.000 -32.4110202143 21.659558553 -15.3380068593
69 69 1 0.000 -32.7450241909 20.1319196087 -15.6747321098
70 70 2 0.000 -32.9163996551 19.5408524358 -17.2133533381
71 71 1 0.000 -33.4452662814 18.410065937 -18.3033207282
72 72 1 0.000 -31.8824775491 18.1499251095 -18.359527993
73 73 1 0.000 -32.1492595808 19.17137471 -19.6369069257
74 74 1 0.000 -33.3775583948 19.3124598039 -20.6044169898
75 75 1 0.000 -31.8240025561 19.3101920757 -21.4804080205
76 76 1 0.000 -31.0980055517 18.701630999 -22.8318120829
77 77 1 0.000 -31.4391366743 18.5014229898 -24.4649003912
78 78 1 0.000 -30.727717923 17.2344108148 -25.2093631829
79 79 1 0.000 -31.1500013211 16.8283254757 -26.6046639851
80 80 1 0.000 -32.0718328588 15.6060361416 -26.8691782886
81 81 1 0.000 -30.8195609175 14.9629893974 -27.6900959187
82 82 1 0.000 -30.7306335736 13.7928254171 -26.7229098158
83 83 1 0.000 -30.0605198728 13.1913914865 -25.391429366
84 84 1 0.000 -28.9298953546 14.1346692543 -26.1002564279
85 85 1 0.000 -27.3526903498 14.504665318 -26.124715497
86 86 1 0.000 -27.9534763581 14.0177030702 -27.5462571548
87 87 1 0.000 -27.3478309321 14.3790169743 -29.045873457
88 88 1 0.000 -27.5049521044 12.854957801 -28.916288985
89 89 1 0.000 -26.486580135 11.6448494073 -29.3278816642
90 90 1 0.000 -25.009803096 12.0896805036 -29.8123656089
91 91 1 0.000 -23.6619626066 12.9735275929 -29.7883924816
92 92 1 0.000 -22.6659439587 12.9569569786 -31.1054566589
93 93 1 0.000 -23.7651442424 11.8847426611 -31.0032469066
94 94 1 0.000 -24.7681280557 10.5363514377 -31.277642026
95 95 1 0.000 -25.5812706175 9.15004055822 -30.8678311333
96 96 1 0.000 -24.2311623999 9.39103528002 -30.0550125327
97 97 1 0.000 -24.1056274426 8.26206296383 -31.2390906456
98 98 1 0.000 -24.1906672524 7.50308671133 -32.6797460131
99 99 1 0.000 -24.0039036321 6.08701999743 -32.0493175568
100 100 1 0.000 -24.1373756383 4.50118142716 -31.9519672222
101 101 1 0.000 -25.6340762899 3.79256494008 -32.1605982221
102 102 1 0.000 -27.1346644756 3.43298422834 -32.2506594302
103 103 1 0.000 -27.9996408262 2.24947304751 -31.7993815064
104 104 1 0.000 -28.5168448501 3.61530958045 -31.2786139096
105 105 1 0.000 -28.3075659278 3.58333461198 -29.6319192317
106 106 1 0.000 -26.8158866745 3.09161013492 -29.1500269764
107 107 1 0.000 -26.4998625434 1.92016650804 -28.0020705351
108 108 1 0.000 -26.9854803522 0.456397968209 -27.5477149801
109 109 1 0.000 -28.2157229333 -0.285550884674 -26.8610792591
110 110 1 0.000 -28.4561021288 0.49094680825 -25.4298187659
111 111 1 0.000 -29.9317453037 0.456295920438 -26.2236856375
112 112 1 0.000 -31.4036629251 -0.0492823839327 -25.7492444894
113 113 1 0.000 -30.98769677 -1.49005798958 -26.5270752825
114 114 1 0.000 -30.4609358913 -3.072415435 -26.8290071023
115 115 1 0.000 -28.9867505417 -3.72412814081 -26.5113631653
116 116 1 0.000 -28.9637492979 -2.76841026369 -25.0572634089
117 117 2 0.000 -29.2115796006 -4.39809697968 -24.779466697
118 118 1 0.000 -28.6180827188 -5.75296742668 -24.095584646
119 119 1 0.000 -27.0544840836 -5.70388730791 -24.5593350752
120 120 1 0.000 -25.8059376958 -6.76103743048 -24.5136565488
121 121 1 0.000 -24.3170121126 -6.54288197187 -23.9460765615
122 122 1 0.000 -23.2100367605 -6.77498395928 -22.868095735
123 123 1 0.000 -24.0053614574 -5.78319300477 -21.8714291648
124 124 1 0.000 -22.7862955371 -5.59284961346 -20.9146098196
125 125 1 0.000 -22.4589327647 -3.99719501943 -20.5303918601
126 126 1 0.000 -23.8132524777 -4.07272656855 -19.6561826159
127 127 2 0.000 -23.9068772587 -2.55121049056 -20.4171674277
128 128 1 0.000 -23.3007458909 -1.28175419046 -20.8898267893
129 129 1 0.000 -24.3513519976 -1.03957863015 -19.5695230003
130 130 1 0.000 -25.7976766858 -1.88135595867 -19.391830293
131 131 1 0.000 -25.1014841099 -2.84654970031 -18.2691428237
132 132 1 0.000 -26.4329645597 -3.06974275527 -17.3325710524
133 133 1 0.000 -28.0950473937 -3.22461239737 -17.4462814265
134 134 1 0.000 -27.225373606 -3.69932891248 -18.7811634687
135 135 1 0.000 -28.3845067081 -4.55628722387 -19.5419863
136 136 1 0.000 -29.4051464057 -3.41359515172 -19.0432480634
137 137 1 0.000 -30.850985152 -3.53823921572 -18.3214625543
138 138 1 0.000 -30.6606579587 -2.16176055802 -19.0152254213
139 139 1 0.000 -30.2374026771 -2.23095866607 -20.6463699626
140 140 1 0.000 -30.7515290697 -3.5719473765 -21.3903468125
141 141 1 0.000 -30.7999612661 -2.4751444055 -22.6633522693
142 142 1 0.000 -31.6837273652 -1.99064426275 -23.9352238619
143 143 1 0.000 -32.2623220327 -1.07142563395 -22.6035814315
144 144 1 0.000 -31.3500473498 0.170750057162 -23.0009198188
145 145 1 0.000 -32.5423864728 1.22502502427 -23.0263507715
146 146 1 0.000 -32.8551709921 2.5745032994 -23.7055353853
147 147 1 0.000 -31.9955400009 3.96977170554 -24.1833781258
148 148 1 0.000 -33.5661038016 4.40899827339 -24.5332562002
149 149 1 0.000 -33.594774366 3.9209183596 -25.910577157
150 150 1 0.000 -32.0967778697 3.56298984988 -26.4358802104
151 151 1 0.000 -30.7293377289 3.79115570895 -25.4465027666
152 152 1 0.000 -30.2221765016 5.23385203184 -26.2181782974
153 153 1 0.000 -28.828981447 5.82080489777 -26.4914395527
154 154 1 0.000 -27.488106123 6.68970117865 -26.6929434067
155 155 1 0.000 -26.7285791365 5.81753288985 -25.5568115484
156 156 1 0.000 -25.9496144792 6.30235699378 -24.1289526476
157 157 1 0.000 -25.3384617131 5.27609656972 -23.2527996363
158 158 1 0.000 -23.8754530242 5.62914946368 -22.7558431862
159 159 1 0.000 -23.9151382688 6.18223218823 -21.3221529841
160 160 1 0.000 -23.3418889608 5.04598694356 -20.35188925
161 161 1 0.000 -22.982292051 6.05426752213 -19.1030189011
162 162 1 0.000 -23.2745050353 7.37361562574 -18.442462055
163 163 1 0.000 -23.2066351681 7.91743306055 -19.9297678324
164 164 1 0.000 -24.6140845146 8.71560861584 -19.884089306
165 165 1 0.000 -25.3350601207 8.12611265465 -21.1713490548
166 166 1 0.000 -25.5184221486 6.70353432103 -20.3531850947
167 167 1 0.000 -26.5541260411 6.17499165586 -19.2705068311
168 168 1 0.000 -28.1410498813 6.45578500863 -18.7377526706
169 169 1 0.000 -28.1587057656 7.46816369613 -20.0083284186
170 170 1 0.000 -27.5509545919 7.42889960111 -21.5868292681
171 171 1 0.000 -27.3931854973 8.36686440556 -22.8379673453
172 172 1 0.000 -27.4915077154 7.28298748564 -23.9671340382
173 173 1 0.000 -28.1883482136 5.77246988971 -23.7231912696
174 174 2 0.000 -29.5512528978 4.87699259402 -24.046990469
175 175 1 0.000 -30.6915962514 5.12009306349 -23.0213293732
176 176 1 0.000 -31.8691951407 5.15580978358 -22.0418327454
177 177 1 0.000 -32.0400846632 4.31952019547 -20.6329255736
178 178 1 0.000 -33.1337776069 4.53919827163 -19.4224446245
179 179 1 0.000 -33.1138539943 3.70537078849 -18.080597417
180 180 1 0.000 -34.2010677144 4.20768879613 -16.9766996961
181 181 1 0.000 -33.9823939179 2.79989929039 -16.2187925155
182 182 1 0.000 -34.1523115568 2.4375325125 -17.8577121251
183 183 1 0.000 -33.9289403232 2.86652190705 -19.4423682371
184 184 1 0.000 -34.8606526769 2.6823175801 -20.8507894672
185 185 1 0.000 -33.6083807356 2.49135866255 -22.0217471523
186 186 1 0.000 -34.8496379967 2.99550705087 -22.8110785673
187 187 1 0.000 -35.8720594808 2.15536232472 -23.8228093325
188 188 2 0.000 -37.1633687443 2.99359567991 -23.445718519
189 189 1 0.000 -36.8395695449 2.51389016262 -21.8693234171
190 190 1 0.000 -36.5028118983 1.52623117098 -20.6792520224
191 191 2 0.000 -38.026725289 1.10983252769 -20.3130139084
192 192 1 0.000 -38.7123891265 2.04113361265 -19.2439420144
193 193 1 0.000 -40.190138049 1.62315889821 -19.842622275
194 194 1 0.000 -40.0825829373 1.00895587565 -18.280481465
195 195 1 0.000 -39.5393000384 2.37063452883 -17.4710644568
196 196 1 0.000 -39.224571752 1.75497870236 -16.070385899
197 197 1 0.000 -38.8651368228 3.2620137156 -15.7512193444
198 198 1 0.000 -38.6843664844 2.52636266805 -14.2655333729
199 199 1 0.000 -37.5172963334 2.96908801664 -13.2106509786
200 200 1 0.000 -37.1531639671 1.58740962002 -12.6247995807
201 201 1 0.000 -36.9215317234 1.63848226203 -10.9677543431
202 202 1 0.000 -36.0925150638 2.16214931144 -9.77233758888
203 203 1 0.000 -35.1868815851 2.26680497064 -10.9540669832
204 204 1 0.000 -34.9281985829 3.69482585208 -11.6279062376
205 205 1 0.000 -35.8224934203 3.30866412552 -12.8786069672
206 206 1 0.000 -34.2622963774 2.93546084616 -12.858505176
207 207 1 0.000 -32.7633279975 3.06468896086 -12.1648394974
208 208 2 0.000 -33.047603933 4.11772477645 -13.2876727492
209 209 1 0.000 -32.5704091148 5.49639017212 -12.7900035845
210 210 1 0.000 -31.7204969591 5.89580191094 -11.4571139035
211 211 1 0.000 -33.1545111224 6.69154775737 -11.4315371684
212 212 1 0.000 -34.7624924393 6.59403544219 -11.7667398013
213 213 1 0.000 -36.3364578323 6.84087766329 -11.2599349313
214 214 1 0.000 -37.0822164687 7.17753812155 -9.97410061178
215 215 1 0.000 -38.4122390932 7.37578616565 -9.01758902977
216 216 1 0.000 -38.5155827096 8.60534842822 -10.0217876975
217 217 1 0.000 -38.5687123431 8.99931761922 -8.43740695251
218 218 1 0.000 -39.1818088763 8.36751232793 -6.98392272232
219 219 1 0.000 -39.3032943188 6.80062548668 -6.7724084679
220 220 1 0.000 -39.2444953646 5.59032271626 -7.76805456045
221 221 1 0.000 -38.0147387253 4.49481558997 -8.0869781441
222 222 1 0.000 -37.2786989244 3.67023719851 -6.8931811958
223 223 1 0.000 -36.0296665949 3.50163160238 -7.90293579775
224 224 1 0.000 -35.2176578972 2.03010273447 -7.70548145854
225 225 1 0.000 -35.7925270111 1.96670353154 -6.15914995416
226 226 1 0.000 -36.9001502855 0.86668670365 -6.5022572399
227 227 2 0.000 -38.2805488735 0.41462641366 -7.04973543604
228 228 1 0.000 -38.9244217188 -0.585906633293 -6.04462967703
229 229 1 0.000 -40.3722042322 -0.963572477908 -6.20594614661
230 230 1 0.000 -41.4744821471 -1.65195904711 -7.24432271881
231 231 1 0.000 -43.0048747615 -1.05678096881 -7.19106350081
232 232 1 0.000 -42.8166533159 -0.370244055961 -5.69047531505
233 233 1 0.000 -43.6084144398 0.671621578142 -6.46017468262
234 234 1 0.000 -42.8054766552 1.36439798332 -5.25461794348
235 235 1 0.000 -41.2848028763 1.56670202139 -4.87593972018
236 236 1 0.000 -40.1476991345 0.512256974671 -4.91419953554
237 237 1 0.000 -40.3383502889 -0.267736259386 -3.56367016835
238 238 1 0.000 -39.19654911 0.556706068373 -2.68121611209
239 239 1 0.000 -39.2587496565 -0.189188631683 -1.34840078025
240 240 1 0.000 -37.7539499754 -0.0761648446297 -0.756131711363
241 241 1 0.000 -37.5368959848 -1.18121769766 0.324283683355
242 242 1 0.000 -36.5361798998 -2.37455445911 0.722443312216
243 243 1 0.000 -34.9505519043 -2.19232629536 0.35014712416
244 244 1 0.000 -33.7507616742 -3.09334332723 -0.177598596507
245 245 1 0.000 -33.6689614762 -2.6166182528 -1.74733321851
246 246 1 0.000 -34.8117345387 -3.8382272684 -1.34970148439
247 247 1 0.000 -35.7353478628 -2.62107271903 -1.96254063038
248 248 1 0.000 -36.7347681032 -2.56880158263 -3.28710450899
249 249 1 0.000 -36.8769870612 -4.27261061661 -3.37091326625
250 250 1 0.000 -38.5277312539 -4.62401130855 -3.39176016819
251 251 1 0.000 -39.6134871486 -3.93991868281 -4.00422497704
252 252 1 0.000 -40.5871524751 -3.05273479332 -4.95454890051
253 253 1 0.000 -42.089684428 -2.44325042732 -4.74042675859
254 254 1 0.000 -42.5903664317 -3.62933709954 -5.77507777721
255 255 1 0.000 -41.8316493481 -3.66495663128 -7.18304546161
256 256 1 0.000 -42.5762741203 -4.67856637127 -8.22219954064
257 257 1 0.000 -41.4477553498 -4.55667597729 -9.3472681246
258 258 1 0.000 -41.9809954521 -3.21400266872 -9.58165403833
259 259 1 0.000 -40.9438337343 -3.74508842915 -10.6183298143
260 260 1 0.000 -39.7158588815 -2.66049879463 -10.2726146411
261 261 1 0.000 -39.5579278063 -1.60655281011 -11.5561326382
262 262 1 0.000 -39.0564358996 -1.13886949221 -13.0062962663
263 263 1 0.000 -38.121159973 -1.44197891086 -14.3349258577
264 264 1 0.000 -37.2111530183 -2.72601994329 -14.4281456872
265 265 1 0.000 -35.9617967277 -3.18296718768 -15.3967734174
266 266 1 0.000 -34.5289164285 -3.8775399576 -15.4701344266
267 267 1 0.000 -32.9141319268 -3.49108666598 -15.4238889682
268 268 1 0.000 -31.4767161712 -4.06929258004 -14.7988544655
269 269 1 0.000 -30.9478495448 -4.68059112864 -16.2704643237
270 270 1 0.000 -31.5959338854 -5.98785548023 -17.0162229601
271 271 1 0.000 -32.9110542956 -6.78175474794 -16.8027325425
272 272 1 0.000 -34.2982560684 -6.50405522445 -17.6762938643
273 273 2 0.000 -34.4986260582 -7.27435392019 -19.0715946666
274 274 1 0.000 -32.7827656683 -7.3351938298 -18.7354849423
275 275 1 0.000 -32.4366131475 -8.41835803513 -19.7590402906
276 276 2 0.000 -32.5161456172 -8.61487288691 -21.4387790089
277 277 1 0.000 -32.6295320302 -7.03541635188 -21.7833117238
278 278 1 0.000 -33.0931204788 -6.88422366918 -23.2464823933
279 279 1 0.000 -34.1310920995 -5.7836951446 -22.7506598073
280 280 1 0.000 -35.4491281603 -6.08256553121 -21.9205092835
281 281 1 0.000 -36.9855140565 -6.41828650204 -22.1424226918
282 282 1 0.000 -37.4115230082 -6.96200674849 -20.7289800635
283 283 1 0.000 -38.7085015923 -6.91208433066 -19.8563906251
284 284 1 0.000 -38.4658546685 -5.37875986766 -19.5853970981
285 285 1 0.000 -38.9385140301 -3.9390925818 -19.1634376611
286 286 1 0.000 -39.1916896923 -2.31954585074 -19.3466377084
287 287 1 0.000 -38.0727277766 -2.7770600272 -20.2751104503
288 288 1 0.000 -36.9932891248 -2.84219242244 -19.1462677186
289 289 1 0.000 -35.6023617985 -2.44546956141 -18.5822513042
290 290 1 0.000 -34.5149860978 -3.67814185131 -18.9036207948
291 291 1 0.000 -34.7057992328 -2.67831665953 -20.1401806188
292 292 1 0.000 -34.6755088625 -1.04161634598 -20.6321156707
293 293 2 0.000 -34.3717952562 -1.86402403554 -21.9324958472
294 294 1 0.000 -34.7696195853 -2.61652106445 -23.2783925695
295 295 1 0.000 -35.1141523002 -3.74725896906 -24.4676540613
296 296 1 0.000 -35.2485961899 -2.92588779329 -25.7319125662
297 297 2 0.000 -36.1218335506 -3.88740457553 -26.6255594813
298 298 1 0.000 -35.3448126604 -5.35068863141 -26.6633009587
299 299 1 0.000 -36.8897835278 -5.13653409337 -26.1537100226
300 300 1 0.000 -37.2731915843 -6.67572225373 -26.5583375364
301 301 1 0.000 -37.0893436147 -7.16064354601 -28.0579538386
302 302 1 0.000 -35.9326402215 -5.9673649356 -28.4499468664
303 303 1 0.000 -35.6525757814 -4.26758921832 -28.3862884946
304 304 1 0.000 -36.2144864481 -2.78608234606 -28.2976851118
305 305 1 0.000 -36.7284508601 -2.2362392333 -29.6936338364
306 306 1 0.000 -35.1514078359 -1.82600719107 -29.3215644212
307 307 1 0.000 -34.6380913462 -0.434276602994 -28.7453994626
308 308 1 0.000 -33.7246827992 0.844375497183 -28.3836968051
309 309 1 0.000 -33.5421306742 1.04316779607 -26.798716732
310 310 1 0.000 -32.9091105285 -0.497986808653 -26.6440252685
311 311 1 0.000 -33.354557151 -1.3066668052 -25.3544977915
312 312 1 0.000 -32.99463628 -2.35208775127 -26.5930013827
313 313 1 0.000 -32.9176954998 -1.93868088947 -28.2032504279
314 314 2 0.000 -31.4789838994 -1.42661829151 -29.0994890323
315 315 1 0.000 -30.3208226809 -2.54294948047 -29.035992641
316 316 1 0.000 -29.1633093848 -3.41155419629 -29.8279157456
317 317 1 0.000 -27.8881981803 -2.73926995555 -30.4904163586
318 318 1 0.000 -26.2904216405 -2.29017876977 -30.0167851135
319 319 1 0.000 -27.0656607443 -1.51829768565 -29.0125054555
320 320 1 0.000 -26.7233957576 -1.98422983138 -27.507867755
321 321 1 0.000 -25.6601551648 -1.15909762829 -26.451430347
322 322 1 0.000 -26.0017722292 -2.67238816994 -26.0641347563
323 323 1 0.000 -25.9376279155 -2.1722407022 -24.5748852118
324 324 1 0.000 -25.3685901028 -3.39715412183 -23.7612567083
325 325 1 0.000 -25.4882937589 -2.0551773298 -22.7663719245
326 326 1 0.000 -26.042915299 -3.26998316062 -21.8694853977
327 327 1 0.000 -25.8760752913 -5.02122011135 -21.7318018962
328 328 1 0.000 -26.2306508028 -6.52166251458 -21.4136720174
329 329 1 0.000 -25.0695739337 -6.57910083179 -20.3366630745
330 330 1 0.000 -25.4996324002 -8.05675256601 -20.0936921895
331 331 1 0.000 -24.2507620513 -8.01434604755 -21.0578006612
332 332 1 0.000 -24.8745493034 -7.98750586378 -22.5925667514
333 333 1 0.000 -26.0949110684 -8.78888863475 -23.3840039142
334 334 1 0.000 -25.3935351137 -10.106211981 -23.687879501
335 335 1 0.000 -24.6955607514 -9.69589894846 -22.2940365241
336 336 1 0.000 -23.7772927867 -9.44836021082 -23.4766568116
337 337 1 0.000 -23.3755809235 -9.70540720909 -24.9892315611
338 338 1 0.000 -22.0147819869 -10.6754765665 -25.2548797287
339 339 1 0.000 -20.9688733173 -11.6212974296 -26.1389697889
340 340 1 0.000 -20.3577205512 -10.1543040182 -26.7442912537
341 341 1 0.000 -18.9037827754 -10.7664772619 -26.8707980945
342 342 1 0.000 -18.2006250342 -10.6022775379 -25.4651305345
343 343 1 0.000 -17.2261498047 -9.42514839227 -25.8318545902
344 344 1 0.000 -16.3070719371 -8.23857577828 -25.2216737077
345 345 1 0.000 -15.3150056156 -7.96484477924 -23.9651902711
346 346 1 0.000 -14.1819027943 -7.99992977504 -22.9178237762
347 347 1 0.000 -13.6191822247 -6.67764982275 -23.9460765615
348 348 1 0.000 -14.8088162718 -6.18275052612 -23.0389852575
349 349 1 0.000 -15.8395635582 -7.36606733025 -22.4709193283
350 350 1 0.000 -16.3014026164 -7.49617014014 -20.957534676
351 351 1 0.000 -16.9289154221 -5.88660141343 -20.8203371162
352 352 1 0.000 -17.8413520855 -6.27326527981 -19.428599887
353 353 1 0.000 -16.3109594712 -6.18185963288 -18.9172271643
354 354 1 0.000 -15.0813486145 -6.970105778 -18.239014434
355 355 1 0.000 -15.5506549779 -8.37190200191 -17.5606397231
356 356 1 0.000 -15.1303153468 -9.85339267611 -18.3088280683
357 357 1 0.000 -16.221384205 -10.1994480086 -19.424226411
358 358 1 0.000 -17.7274797308 -10.7254151824 -18.8728444827
359 359 1 0.000 -17.2689126805 -10.0078735648 -17.4080540073
360 360 1 0.000 -18.9413622722 -9.88705224272 -17.2716663505
361 361 1 0.000 -18.7107019121 -10.1554216842 -15.7660891626
362 362 1 0.000 -19.5517051354 -11.3773222649 -15.4089381597
363 363 1 0.000 -18.6154573252 -12.1126007571 -16.5014486451
364 364 1 0.000 -18.1406922159 -12.0475493521 -18.0891823883
365 365 1 0.000 -19.7269681337 -11.7819173826 -17.6652791842
366 366 1 0.000 -21.3035252162 -11.7283665995 -17.1534205198
367 367 1 0.000 -22.0970681266 -11.8060686886 -18.6084921598
368 368 1 0.000 -21.9193754194 -13.3757739921 -18.8174471209
369 369 1 0.000 -23.1298563685 -14.3195538997 -19.0988074057
370 370 1 0.000 -22.1817839752 -14.5640474023 -20.3039429953
371 371 1 0.000 -22.9889332552 -15.845540642 -20.6960980037
372 372 1 0.000 -23.6894993069 -16.6861065177 -21.9007476515
373 373 1 0.000 -23.2239670912 -18.1680669356 -22.0304941041
374 374 1 0.000 -21.8903808938 -18.0098118991 -22.9448745347
375 375 1 0.000 -20.3552908423 -18.3826912173 -22.8564331325
376 376 1 0.000 -19.1519370392 -19.4005772449 -23.1760208366
377 377 1 0.000 -18.4560684246 -19.1401124562 -24.6476144968
378 378 1 0.000 -19.8563906251 -18.7578382638 -25.1755092396
379 379 1 0.000 -19.444797946 -19.7315035903 -26.367686382
380 380 1 0.000 -19.6255682844 -19.1051246487 -27.8185465266
381 381 1 0.000 -19.1793117589 -17.4896922247 -27.5151568815
382 382 1 0.000 -18.5973154991 -16.4293672825 -28.517654753
383 383 1 0.000 -19.5813475833 -17.4082159879 -29.2966194104
384 384 1 0.000 -19.9406205319 -17.814301327 -30.8892125712
385 385 1 0.000 -18.5474254774 -18.6715026093 -30.7560645263
386 386 1 0.000 -17.0933257209 -18.1632075179 -31.5217467752
387 387 1 0.000 -17.0158989989 -16.6460973119 -31.1820734779
388 388 1 0.000 -16.9959753863 -16.6179126893 -29.542505946
389 389 1 0.000 -16.142872213 -16.0988296906 -28.2997908595
390 390 1 0.000 -14.5564019184 -16.5754737747 -27.9947814085
391 391 1 0.000 -13.3322336095 -17.3766297728 -27.3201322512
392 392 1 0.000 -12.460437876 -18.6868907654 -26.6885699308
393 393 1 0.000 -11.4117107441 -17.7423819451 -27.4825987829
394 394 1 0.000 -12.2644899563 -17.0725922054 -28.6671628376
395 395 1 0.000 -11.9446106872 -17.4143712503 -30.2446918036
396 396 1 0.000 -12.8891519036 -17.1752878995 -31.5071685221
397 397 1 0.000 -13.7646245964 -17.4250619693 -32.9057089361
398 398 1 0.000 -14.57549943 -18.7908823041 -33.1804280168
399 399 1 0.000 -14.3443855242 -18.4320952973 -34.7228071948
400 400 1 0.000 -12.998812763 -17.7039925452 -34.3751968486
401 401 1 0.000 -11.5164149975 -18.1507350125 -34.1155419628
402 402 1 0.000 -10.3036663202 -17.1132493335 -33.8727330584
403 403 2 0.000 -11.4644840204 -15.9543430043 -33.8150679684
404 404 1 0.000 -12.2993481793 -15.3096764541 -35.0906651147
405 405 1 0.000 -13.5701021059 -15.858725862 -36.0170321089
406 406 1 0.000 -13.6189554518 -17.1676748117 -37.1057036543
407 407 1 0.000 -12.1503908287 -17.4305693093 -37.8108051625
408 408 1 0.000 -13.3990506029 -17.3175068575 -38.8312828795
409 409 1 0.000 -13.800470901 -18.1463615365 -40.1826869419
410 410 1 0.000 -15.3901970054 -18.5759340612 -40.5596157748
411 411 1 0.000 -15.8799291212 -17.0479711557 -40.8459974579
412 412 1 0.000 -15.8800587057 -17.9908601701 -42.1484833821
413 413 1 0.000 -14.6839292369 -18.3637394883 -43.203786926
414 414 1 0.000 -13.3762437358 -17.2033105415 -42.8143855876
415 415 2 0.000 -13.4569586638 -16.0902609174 -41.6241522123
416 416 1 0.000 -13.8369003357 -14.586773279 -41.8961176229
417 417 1 0.000 -14.075011803 -13.6256452502 -40.6129073889
418 418 1 0.000 -14.7644497882 -12.4800537255 -41.5000750804
419 419 1 0.000 -14.4051606415 -10.9511027384 -41.8447697759
420 420 1 0.000 -15.612466771 -10.0667535093 -41.2161231061
421 421 1 0.000 -16.0431245657 -8.67543742952 -42.0235963472
422 422 1 0.000 -16.6613234874 -7.92611522018 -43.2922283281
423 423 1 0.000 -16.3517785799 -6.54035507467 -44.0916025398
424 424 1 0.000 -17.1351167132 -5.10376542002 -44.5984398059
425 425 1 0.000 -16.7267636458 -3.54573891704 -44.3420245319
426 426 1 0.000 -18.3153072919 -2.97310513527 -44.5074067143
427 427 1 0.000 -17.8638673876 -3.45213033408 -46.0254888038
428 428 1 0.000 -17.0432737186 -3.89087096015 -47.3294325533
429 429 1 0.000 -18.5283117677 -4.63168918852 -47.333482068
430 430 1 0.000 -18.9734344291 -3.92133950913 -48.6061635637
431 431 1 0.000 -20.2691171685 -4.77267709406 -49.1269311605
432 432 1 0.000 -21.5831037146 -5.58964239778 -48.909067267
433 433 1 0.000 -20.4469718563 -6.2770232295 -47.975897088
434 434 1 0.000 -21.4872112053 -6.72141697817 -46.8180598307
435 435 1 0.000 -21.9749347618 -6.00586772184 -45.4443024469
436 436 1 0.000 -23.1685697295 -5.44356830172 -44.5099984037
437 437 1 0.000 -23.548414213 -6.28003606848 -43.0808436582
438 438 1 0.000 -25.1631987147 -6.39586838839 -43.7687752239
439 439 1 0.000 -24.993605037 -4.71000680378 -43.6583044615
440 440 1 0.000 -24.45631542 -3.80186262595 -44.9497757056
441 441 1 0.000 -25.6305127169 -4.16711265834 -45.8937985841
442 442 1 0.000 -27.0361802769 -4.99374820329 -46.2673258247
443 443 1 0.000 -27.5491728054 -4.7178628624 -44.8156557771
444 444 1 0.000 -29.1315611891 -5.28550764199 -45.0595985456
445 445 1 0.000 -30.5845270814 -4.80338861392 -44.375554514
446 446 1 0.000 -32.1139478122 -4.86029239519 -44.5271683463
447 447 1 0.000 -32.8384869913 -5.98226714988 -43.6926443466
448 448 1 0.000 -34.0858995149 -6.01808105833 -42.7998073345
449 449 1 0.000 -35.7042475896 -5.80222572409 -42.7155774277
450 450 1 0.000 -36.0366317602 -7.15777648957 -43.699609512
451 451 1 0.000 -36.8690500123 -5.96990803086 -44.0067247106
452 452 1 0.000 -37.8202000367 -4.85724716009 -43.2347252187
453 453 1 0.000 -37.8927673411 -5.47559186436 -41.7968235212
454 454 1 0.000 -39.4717541324 -5.88329700939 -41.4330151161
455 455 1 0.000 -39.0677745409 -6.84703292571 -42.7288598361
456 456 1 0.000 -40.5060001995 -6.00249852557 -42.8738324641
457 457 1 0.000 -39.4030743622 -4.97165405081 -42.7753482654
458 458 1 0.000 -40.1376563379 -3.70203398833 -42.3802776064
459 459 1 0.000 -38.6184403843 -3.00303914831 -42.6149874813
460 460 1 0.000 -39.1934714788 -2.32842238707 -41.2907961581
461 461 1 0.000 -39.3238658537 -1.91943759538 -39.7424236983
462 462 1 0.000 -39.6598135974 -0.326578948315 -39.8358864987
463 463 1 0.000 -38.1729937618 0.49989137643 -39.7934475841
464 464 1 0.000 -37.6959609242 -0.56046110241 -38.856389871
465 465 1 0.000 -36.4435270023 -1.40599978221 -38.0354722408
466 466 1 0.000 -35.8228173815 -2.28797583375 -36.8264491171
467 467 1 0.000 -36.9056576256 -1.87926640906 -35.6976063854
468 468 1 0.000 -38.2756894558 -2.86297453213 -35.7641804079
469 469 1 0.000 -38.554943993 -2.39144903464 -37.3421953157
470 470 1 0.000 -39.6980410166 -3.40463762509 -36.632882312
471 471 1 0.000 -40.8328770302 -4.61984840739 -36.6656023912
472 472 1 0.000 -41.5199986929 -5.56599323164 -35.4572271898
473 473 1 0.000 -39.9620693783 -5.93467725254 -35.4256409748
474 474 1 0.000 -39.0467170642 -7.11823702755 -36.0188138954
475 475 1 0.000 -39.9896060786 -6.95998199112 -37.2746494096
476 476 1 0.000 -38.6045100535 -6.15991126293 -37.4800407977
477 477 1 0.000 -37.2939250998 -5.78325779701 -36.5261371032
478 478 1 0.000 -36.1974784861 -6.35446614958 -37.6186961828
479 479 1 0.000 -34.8859216489 -6.88730130039 -36.7227815395
480 480 1 0.000 -33.5923446572 -6.03933291174 -36.12442524
481 481 1 0.000 -31.9608761547 -6.04947289667 -35.9446267851
482 482 1 0.000 -32.0266402742 -4.92335143887 -37.0606730502
483 483 2 0.000 -33.3825797931 -4.76872476766 -37.8870980204
484 484 1 0.000 -34.9367835542 -4.51148339268 -37.7733876462
485 485 1 0.000 -35.6028477402 -3.32021334158 -38.5178504379
486 486 1 0.000 -34.2376753277 -2.97636094513 -39.2801310944
487 487 1 0.000 -32.9141319268 -2.25834958384 -38.6624991047
488 488 1 0.000 -32.3342414146 -0.784091504964 -38.2230457641
489 489 1 0.000 -32.8867572071 -0.693855357887 -36.7872498143
490 490 1 0.000 -31.3829294096 0.0060792676064 -36.9231515293
491 491 1 0.000 -30.0062563751 -0.102060033631 -35.9611488053
492 492 1 0.000 -29.8092879777 1.16609324601 -36.8965867126
493 493 1 0.000 -30.8882406877 1.50944188283 -38.1088494481
494 494 1 0.000 -32.3034651025 2.1484943477 -38.6302649673
495 495 1 0.000 -31.9548828728 3.15816795935 -39.9583438247