LAMMPS Description

     6144  atoms
     6144  bonds
     9216  angles
     12288  dihedrals
     6144  impropers

     71  atom types
     807  bond types
     4248  angle types
     641  dihedral types
     38  improper types

  0.0 64.00 xlo xhi
  0.0 64.00 ylo yhi
  0.0 64.00 zlo zhi

Masses

    1 12.01   # Sp2 C carbonyl group
    2 12.01   # Sp C
    3 12.01   # Sp2 C
    4 12.01   # Sp3 C
    5 12.01   # Sp2 C in pure aromatic systems
    6 12.01   # Head Sp2 C that connect two rings in biphenyl sys.
    7 12.01   # Head Sp2 C that connect two rings in biphenyl sys. identical to cp
    8 12.01   # Sp2 carbons in non-pure aromatic systems
    9 12.01   # Sp2 carbons in non-pure aromatic systems, identical to cc
    10 12.01   # Inner Sp2 carbons in conjugated systems
    11 12.01   # Inner Sp2 carbons in conjugated systems, identical to ce
    12 12.01   # Inner Sp carbons in conjugated systems
    13 12.01   # Inner Sp carbons in conjugated systems, identical to cg
    14 12.01   # Sp3 carbons in triangle systems
    15 12.01   # Sp3 carbons in square systems
    16 12.01   # Sp2 carbons in triangle systems
    17 12.01   # Sp2 carbons in square systems
    18 12.01   # Sp2 carbon in guanidine group
    19 1.008   # H bonded to aliphatic carbon with 1 electrwd. group
    20 1.008   # H bonded to aliphatic carbon with 2 electrwd. group
    21 1.008   # H bonded to aliphatic carbon with 3 electrwd. group
    22 1.008   # H bonded to non-sp3 carbon with 1 electrwd. group
    23 1.008   # H bonded to non-sp3 carbon with 2 electrwd. group
    24 1.008   # H bonded to aromatic carbon
    25 1.008   # H bonded to aliphatic carbon without electrwd. group
    26 1.008   # H bonded to nitrogen atoms
    27 1.008   # Hydroxyl group
    28 1.008   # H bonded to phosphate
    29 1.008   # Hydrogen bonded to sulphur
    30 1.008   # Hydrogen in water
    31 1.008   # H bonded to C next to positively charged group
    32 19.00   # Fluorine
    33 35.45   # Chlorine
    34 79.90   # Bromine
    35 126.9   # Iodine
    36 14.01   # Sp2 nitrogen in amide groups
    37 14.01   # Sp N
    38 14.01   # aliphatic Sp2 N with two connected atoms
    39 14.01   # Sp3 N with three connected atoms
    40 14.01   # Sp3 N with four connected atoms
    41 14.01   # Sp2 N with three connected atoms
    42 14.01   # Sp2 N in pure aromatic systems
    43 14.01   # Sp2 N in non-pure aromatic systems
    44 14.01   # Sp2 N in non-pure aromatic systems, identical to nc
    45 14.01   # Inner Sp2 N in conjugated systems
    46 14.01   # Inner Sp2 N in conjugated systems, identical to ne
    47 14.01   # Amine N connected one or more aromatic rings
    48 14.01   # Nitro N
    49 16.00   # Oxygen with one connected atom
    50 16.00   # Oxygen in hydroxyl group
    51 16.00   # Ether and ester oxygen
    52 16.00   # Oxygen in water
    53 30.97   # Phosphate with two connected atoms
    54 30.97   # Phosphate with three connected atoms, such as PH3
    55 30.97   # Phosphate with three connected atoms, such as O=P(CH3)2
    56 30.97   # Phosphate with four connected atoms, such as O=P(OH)3
    57 30.97   # Sp2 P in pure aromatic systems
    58 30.97   # Sp2 P in non-pure aromatic systems
    59 30.97   # Sp2 P in non-pure aromatic systems, identical to pc
    60 30.97   # Inner Sp2 P in conjugated systems
    61 30.97   # Inner Sp2 P in conjugated systems, identical to pe
    62 30.97   # Special p4 in conjugated systems
    63 30.97   # Special p5 in conjugated systems
    64 32.06   # S with one connected atom
    65 32.06   # S with two connected atom, involved at least one double bond
    66 32.06   # S with three connected atoms
    67 32.06   # S with four connected atoms
    68 32.06   # Sp3 S connected with hydrogen
    69 32.06   # Sp3 S in thio-ester and thio-ether
    70 32.06   # Special s4 in conjugated systems
    71 32.06   # Special s6 in conjugated systems

Atoms # full

1 1 5 -0.115 5.274 1.999 -8.568
2 1 5 -0.115 6.627 2.018 -8.209
3 1 5 -0.115 7.366 0.829 -8.202
4 1 5 -0.115 6.752 -0.379 -8.554
5 1 5 -0.115 5.399 -0.398 -8.912
6 1 5 -0.115 4.66 0.791 -8.919
7 1 24 0.115 4.704 2.916 -8.573
8 1 24 0.115 7.101 2.95 -7.938
9 1 24 0.115 8.41 0.844 -7.926
10 1 24 0.115 7.322 -1.296 -8.548
11 1 24 0.115 4.925 -1.33 -9.183
12 1 24 0.115 3.616 0.776 -9.196
13 2 5 -0.115 5.274 1.999 -0.568
14 2 5 -0.115 6.627 2.018 -0.209
15 2 5 -0.115 7.366 0.829 -0.202
16 2 5 -0.115 6.752 -0.379 -0.554
17 2 5 -0.115 5.399 -0.398 -0.912
18 2 5 -0.115 4.66 0.791 -0.919
19 2 24 0.115 4.704 2.916 -0.573
20 2 24 0.115 7.101 2.95 0.062
21 2 24 0.115 8.41 0.844 0.074
22 2 24 0.115 7.322 -1.296 -0.548
23 2 24 0.115 4.925 -1.33 -1.183
24 2 24 0.115 3.616 0.776 -1.196
25 3 5 -0.115 5.274 1.999 7.432
26 3 5 -0.115 6.627 2.018 7.791
27 3 5 -0.115 7.366 0.829 7.798
28 3 5 -0.115 6.752 -0.379 7.446
29 3 5 -0.115 5.399 -0.398 7.088
30 3 5 -0.115 4.66 0.791 7.081
31 3 24 0.115 4.704 2.916 7.427
32 3 24 0.115 7.101 2.95 8.062
33 3 24 0.115 8.41 0.844 8.074
34 3 24 0.115 7.322 -1.296 7.452
35 3 24 0.115 4.925 -1.33 6.817
36 3 24 0.115 3.616 0.776 6.804
37 4 5 -0.115 5.274 1.999 15.432
38 4 5 -0.115 6.627 2.018 15.791
39 4 5 -0.115 7.366 0.829 15.798
40 4 5 -0.115 6.752 -0.379 15.446
41 4 5 -0.115 5.399 -0.398 15.088
42 4 5 -0.115 4.66 0.791 15.081
43 4 24 0.115 4.704 2.916 15.427
44 4 24 0.115 7.101 2.95 16.062
45 4 24 0.115 8.41 0.844 16.074
46 4 24 0.115 7.322 -1.296 15.452
47 4 24 0.115 4.925 -1.33 14.817
48 4 24 0.115 3.616 0.776 14.804
49 5 5 -0.115 5.274 1.999 23.432
50 5 5 -0.115 6.627 2.018 23.791
51 5 5 -0.115 7.366 0.829 23.798
52 5 5 -0.115 6.752 -0.379 23.446
53 5 5 -0.115 5.399 -0.398 23.088
54 5 5 -0.115 4.66 0.791 23.081
55 5 24 0.115 4.704 2.916 23.427
56 5 24 0.115 7.101 2.95 24.062
57 5 24 0.115 8.41 0.844 24.074
58 5 24 0.115 7.322 -1.296 23.452
59 5 24 0.115 4.925 -1.33 22.817
60 5 24 0.115 3.616 0.776 22.804
61 6 5 -0.115 5.274 1.999 31.432
62 6 5 -0.115 6.627 2.018 31.791
63 6 5 -0.115 7.366 0.829 31.798
64 6 5 -0.115 6.752 -0.379 31.446
65 6 5 -0.115 5.399 -0.398 31.088
66 6 5 -0.115 4.66 0.791 31.081
67 6 24 0.115 4.704 2.916 31.427
68 6 24 0.115 7.101 2.95 32.062
69 6 24 0.115 8.41 0.844 32.074
70 6 24 0.115 7.322 -1.296 31.452
71 6 24 0.115 4.925 -1.33 30.817
72 6 24 0.115 3.616 0.776 30.804
73 7 5 -0.115 5.274 1.999 39.432
74 7 5 -0.115 6.627 2.018 39.791
75 7 5 -0.115 7.366 0.829 39.798
76 7 5 -0.115 6.752 -0.379 39.446
77 7 5 -0.115 5.399 -0.398 39.088
78 7 5 -0.115 4.66 0.791 39.081
79 7 24 0.115 4.704 2.916 39.427
80 7 24 0.115 7.101 2.95 40.062
81 7 24 0.115 8.41 0.844 40.074
82 7 24 0.115 7.322 -1.296 39.452
83 7 24 0.115 4.925 -1.33 38.817
84 7 24 0.115 3.616 0.776 38.804
85 8 5 -0.115 5.274 1.999 47.432
86 8 5 -0.115 6.627 2.018 47.791
87 8 5 -0.115 7.366 0.829 47.798
88 8 5 -0.115 6.752 -0.379 47.446
89 8 5 -0.115 5.399 -0.398 47.088
90 8 5 -0.115 4.66 0.791 47.081
91 8 24 0.115 4.704 2.916 47.427
92 8 24 0.115 7.101 2.95 48.062
93 8 24 0.115 8.41 0.844 48.074
94 8 24 0.115 7.322 -1.296 47.452
95 8 24 0.115 4.925 -1.33 46.817
96 8 24 0.115 3.616 0.776 46.804
97 9 5 -0.115 5.274 9.999 -8.568
98 9 5 -0.115 6.627 10.018 -8.209
99 9 5 -0.115 7.366 8.829 -8.202
100 9 5 -0.115 6.752 7.621 -8.554
101 9 5 -0.115 5.399 7.602 -8.912
102 9 5 -0.115 4.66 8.791 -8.919
103 9 24 0.115 4.704 10.916 -8.573
104 9 24 0.115 7.101 10.95 -7.938
105 9 24 0.115 8.41 8.844 -7.926
106 9 24 0.115 7.322 6.704 -8.548
107 9 24 0.115 4.925 6.67 -9.183
108 9 24 0.115 3.616 8.776 -9.196
109 10 5 -0.115 5.274 9.999 -0.568
110 10 5 -0.115 6.627 10.018 -0.209
111 10 5 -0.115 7.366 8.829 -0.202
112 10 5 -0.115 6.752 7.621 -0.554
113 10 5 -0.115 5.399 7.602 -0.912
114 10 5 -0.115 4.66 8.791 -0.919
115 10 24 0.115 4.704 10.916 -0.573
116 10 24 0.115 7.101 10.95 0.062
117 10 24 0.115 8.41 8.844 0.074
118 10 24 0.115 7.322 6.704 -0.548
119 10 24 0.115 4.925 6.67 -1.183
120 10 24 0.115 3.616 8.776 -1.196
121 11 5 -0.115 5.274 9.999 7.432
122 11 5 -0.115 6.627 10.018 7.791
123 11 5 -0.115 7.366 8.829 7.798
124 11 5 -0.115 6.752 7.621 7.446
125 11 5 -0.115 5.399 7.602 7.088
126 11 5 -0.115 4.66 8.791 7.081
127 11 24 0.115 4.704 10.916 7.427
128 11 24 0.115 7.101 10.95 8.062
129 11 24 0.115 8.41 8.844 8.074
130 11 24 0.115 7.322 6.704 7.452
131 11 24 0.115 4.925 6.67 6.817
132 11 24 0.115 3.616 8.776 6.804
133 12 5 -0.115 5.274 9.999 15.432
134 12 5 -0.115 6.627 10.018 15.791
135 12 5 -0.115 7.366 8.829 15.798
136 12 5 -0.115 6.752 7.621 15.446
137 12 5 -0.115 5.399 7.602 15.088
138 12 5 -0.115 4.66 8.791 15.081
139 12 24 0.115 4.704 10.916 15.427
140 12 24 0.115 7.101 10.95 16.062
141 12 24 0.115 8.41 8.844 16.074
142 12 24 0.115 7.322 6.704 15.452
143 12 24 0.115 4.925 6.67 14.817
144 12 24 0.115 3.616 8.776 14.804
145 13 5 -0.115 5.274 9.999 23.432
146 13 5 -0.115 6.627 10.018 23.791
147 13 5 -0.115 7.366 8.829 23.798
148 13 5 -0.115 6.752 7.621 23.446
149 13 5 -0.115 5.399 7.602 23.088
150 13 5 -0.115 4.66 8.791 23.081
151 13 24 0.115 4.704 10.916 23.427
152 13 24 0.115 7.101 10.95 24.062
153 13 24 0.115 8.41 8.844 24.074
154 13 24 0.115 7.322 6.704 23.452
155 13 24 0.115 4.925 6.67 22.817
156 13 24 0.115 3.616 8.776 22.804
157 14 5 -0.115 5.274 9.999 31.432
158 14 5 -0.115 6.627 10.018 31.791
159 14 5 -0.115 7.366 8.829 31.798
160 14 5 -0.115 6.752 7.621 31.446
161 14 5 -0.115 5.399 7.602 31.088
162 14 5 -0.115 4.66 8.791 31.081
163 14 24 0.115 4.704 10.916 31.427
164 14 24 0.115 7.101 10.95 32.062
165 14 24 0.115 8.41 8.844 32.074
166 14 24 0.115 7.322 6.704 31.452
167 14 24 0.115 4.925 6.67 30.817
168 14 24 0.115 3.616 8.776 30.804
169 15 5 -0.115 5.274 9.999 39.432
170 15 5 -0.115 6.627 10.018 39.791
171 15 5 -0.115 7.366 8.829 39.798
172 15 5 -0.115 6.752 7.621 39.446
173 15 5 -0.115 5.399 7.602 39.088
174 15 5 -0.115 4.66 8.791 39.081
175 15 24 0.115 4.704 10.916 39.427
176 15 24 0.115 7.101 10.95 40.062
177 15 24 0.115 8.41 8.844 40.074
178 15 24 0.115 7.322 6.704 39.452
179 15 24 0.115 4.925 6.67 38.817
180 15 24 0.115 3.616 8.776 38.804
181 16 5 -0.115 5.274 9.999 47.432
182 16 5 -0.115 6.627 10.018 47.791
183 16 5 -0.115 7.366 8.829 47.798
184 16 5 -0.115 6.752 7.621 47.446
185 16 5 -0.115 5.399 7.602 47.088
186 16 5 -0.115 4.66 8.791 47.081
187 16 24 0.115 4.704 10.916 47.427
188 16 24 0.115 7.101 10.95 48.062
189 16 24 0.115 8.41 8.844 48.074
190 16 24 0.115 7.322 6.704 47.452
191 16 24 0.115 4.925 6.67 46.817
192 16 24 0.115 3.616 8.776 46.804
193 17 5 -0.115 5.274 17.999 -8.568
194 17 5 -0.115 6.627 18.018 -8.209
195 17 5 -0.115 7.366 16.829 -8.202
196 17 5 -0.115 6.752 15.621 -8.554
197 17 5 -0.115 5.399 15.602 -8.912
198 17 5 -0.115 4.66 16.791 -8.919
199 17 24 0.115 4.704 18.916 -8.573
200 17 24 0.115 7.101 18.95 -7.938
201 17 24 0.115 8.41 16.844 -7.926
202 17 24 0.115 7.322 14.704 -8.548
203 17 24 0.115 4.925 14.67 -9.183
204 17 24 0.115 3.616 16.776 -9.196
205 18 5 -0.115 5.274 17.999 -0.568
206 18 5 -0.115 6.627 18.018 -0.209
207 18 5 -0.115 7.366 16.829 -0.202
208 18 5 -0.115 6.752 15.621 -0.554
209 18 5 -0.115 5.399 15.602 -0.912
210 18 5 -0.115 4.66 16.791 -0.919
211 18 24 0.115 4.704 18.916 -0.573
212 18 24 0.115 7.101 18.95 0.062
213 18 24 0.115 8.41 16.844 0.074
214 18 24 0.115 7.322 14.704 -0.548
215 18 24 0.115 4.925 14.67 -1.183
216 18 24 0.115 3.616 16.776 -1.196
217 19 5 -0.115 5.274 17.999 7.432
218 19 5 -0.115 6.627 18.018 7.791
219 19 5 -0.115 7.366 16.829 7.798
220 19 5 -0.115 6.752 15.621 7.446
221 19 5 -0.115 5.399 15.602 7.088
222 19 5 -0.115 4.66 16.791 7.081
223 19 24 0.115 4.704 18.916 7.427
224 19 24 0.115 7.101 18.95 8.062
225 19 24 0.115 8.41 16.844 8.074
226 19 24 0.115 7.322 14.704 7.452
227 19 24 0.115 4.925 14.67 6.817
228 19 24 0.115 3.616 16.776 6.804
229 20 5 -0.115 5.274 17.999 15.432
230 20 5 -0.115 6.627 18.018 15.791
231 20 5 -0.115 7.366 16.829 15.798
232 20 5 -0.115 6.752 15.621 15.446
233 20 5 -0.115 5.399 15.602 15.088
234 20 5 -0.115 4.66 16.791 15.081
235 20 24 0.115 4.704 18.916 15.427
236 20 24 0.115 7.101 18.95 16.062
237 20 24 0.115 8.41 16.844 16.074
238 20 24 0.115 7.322 14.704 15.452
239 20 24 0.115 4.925 14.67 14.817
240 20 24 0.115 3.616 16.776 14.804
241 21 5 -0.115 5.274 17.999 23.432
242 21 5 -0.115 6.627 18.018 23.791
243 21 5 -0.115 7.366 16.829 23.798
244 21 5 -0.115 6.752 15.621 23.446
245 21 5 -0.115 5.399 15.602 23.088
246 21 5 -0.115 4.66 16.791 23.081
247 21 24 0.115 4.704 18.916 23.427
248 21 24 0.115 7.101 18.95 24.062
249 21 24 0.115 8.41 16.844 24.074
250 21 24 0.115 7.322 14.704 23.452
251 21 24 0.115 4.925 14.67 22.817
252 21 24 0.115 3.616 16.776 22.804
253 22 5 -0.115 5.274 17.999 31.432
254 22 5 -0.115 6.627 18.018 31.791
255 22 5 -0.115 7.366 16.829 31.798
256 22 5 -0.115 6.752 15.621 31.446
257 22 5 -0.115 5.399 15.602 31.088
258 22 5 -0.115 4.66 16.791 31.081
259 22 24 0.115 4.704 18.916 31.427
260 22 24 0.115 7.101 18.95 32.062
261 22 24 0.115 8.41 16.844 32.074
262 22 24 0.115 7.322 14.704 31.452
263 22 24 0.115 4.925 14.67 30.817
264 22 24 0.115 3.616 16.776 30.804
265 23 5 -0.115 5.274 17.999 39.432
266 23 5 -0.115 6.627 18.018 39.791
267 23 5 -0.115 7.366 16.829 39.798
268 23 5 -0.115 6.752 15.621 39.446
269 23 5 -0.115 5.399 15.602 39.088
270 23 5 -0.115 4.66 16.791 39.081
271 23 24 0.115 4.704 18.916 39.427
272 23 24 0.115 7.101 18.95 40.062
273 23 24 0.115 8.41 16.844 40.074
274 23 24 0.115 7.322 14.704 39.452
275 23 24 0.115 4.925 14.67 38.817
276 23 24 0.115 3.616 16.776 38.804
277 24 5 -0.115 5.274 17.999 47.432
278 24 5 -0.115 6.627 18.018 47.791
279 24 5 -0.115 7.366 16.829 47.798
280 24 5 -0.115 6.752 15.621 47.446
281 24 5 -0.115 5.399 15.602 47.088
282 24 5 -0.115 4.66 16.791 47.081
283 24 24 0.115 4.704 18.916 47.427
284 24 24 0.115 7.101 18.95 48.062
285 24 24 0.115 8.41 16.844 48.074
286 24 24 0.115 7.322 14.704 47.452
287 24 24 0.115 4.925 14.67 46.817
288 24 24 0.115 3.616 16.776 46.804
289 25 5 -0.115 5.274 25.999 -8.568
290 25 5 -0.115 6.627 26.018 -8.209
291 25 5 -0.115 7.366 24.829 -8.202
292 25 5 -0.115 6.752 23.621 -8.554
293 25 5 -0.115 5.399 23.602 -8.912
294 25 5 -0.115 4.66 24.791 -8.919
295 25 24 0.115 4.704 26.916 -8.573
296 25 24 0.115 7.101 26.95 -7.938
297 25 24 0.115 8.41 24.844 -7.926
298 25 24 0.115 7.322 22.704 -8.548
299 25 24 0.115 4.925 22.67 -9.183
300 25 24 0.115 3.616 24.776 -9.196
301 26 5 -0.115 5.274 25.999 -0.568
302 26 5 -0.115 6.627 26.018 -0.209
303 26 5 -0.115 7.366 24.829 -0.202
304 26 5 -0.115 6.752 23.621 -0.554
305 26 5 -0.115 5.399 23.602 -0.912
306 26 5 -0.115 4.66 24.791 -0.919
307 26 24 0.115 4.704 26.916 -0.573
308 26 24 0.115 7.101 26.95 0.062
309 26 24 0.115 8.41 24.844 0.074
310 26 24 0.115 7.322 22.704 -0.548
311 26 24 0.115 4.925 22.67 -1.183
312 26 24 0.115 3.616 24.776 -1.196
313 27 5 -0.115 5.274 25.999 7.432
314 27 5 -0.115 6.627 26.018 7.791
315 27 5 -0.115 7.366 24.829 7.798
316 27 5 -0.115 6.752 23.621 7.446
317 27 5 -0.115 5.399 23.602 7.088
318 27 5 -0.115 4.66 24.791 7.081
319 27 24 0.115 4.704 26.916 7.427
320 27 24 0.115 7.101 26.95 8.062
321 27 24 0.115 8.41 24.844 8.074
322 27 24 0.115 7.322 22.704 7.452
323 27 24 0.115 4.925 22.67 6.817
324 27 24 0.115 3.616 24.776 6.804
325 28 5 -0.115 5.274 25.999 15.432
326 28 5 -0.115 6.627 26.018 15.791
327 28 5 -0.115 7.366 24.829 15.798
328 28 5 -0.115 6.752 23.621 15.446
329 28 5 -0.115 5.399 23.602 15.088
330 28 5 -0.115 4.66 24.791 15.081
331 28 24 0.115 4.704 26.916 15.427
332 28 24 0.115 7.101 26.95 16.062
333 28 24 0.115 8.41 24.844 16.074
334 28 24 0.115 7.322 22.704 15.452
335 28 24 0.115 4.925 22.67 14.817
336 28 24 0.115 3.616 24.776 14.804
337 29 5 -0.115 5.274 25.999 23.432
338 29 5 -0.115 6.627 26.018 23.791
339 29 5 -0.115 7.366 24.829 23.798
340 29 5 -0.115 6.752 23.621 23.446
341 29 5 -0.115 5.399 23.602 23.088
342 29 5 -0.115 4.66 24.791 23.081
343 29 24 0.115 4.704 26.916 23.427
344 29 24 0.115 7.101 26.95 24.062
345 29 24 0.115 8.41 24.844 24.074
346 29 24 0.115 7.322 22.704 23.452
347 29 24 0.115 4.925 22.67 22.817
348 29 24 0.115 3.616 24.776 22.804
349 30 5 -0.115 5.274 25.999 31.432
350 30 5 -0.115 6.627 26.018 31.791
351 30 5 -0.115 7.366 24.829 31.798
352 30 5 -0.115 6.752 23.621 31.446
353 30 5 -0.115 5.399 23.602 31.088
354 30 5 -0.115 4.66 24.791 31.081
355 30 24 0.115 4.704 26.916 31.427
356 30 24 0.115 7.101 26.95 32.062
357 30 24 0.115 8.41 24.844 32.074
358 30 24 0.115 7.322 22.704 31.452
359 30 24 0.115 4.925 22.67 30.817
360 30 24 0.115 3.616 24.776 30.804
361 31 5 -0.115 5.274 25.999 39.432
362 31 5 -0.115 6.627 26.018 39.791
363 31 5 -0.115 7.366 24.829 39.798
364 31 5 -0.115 6.752 23.621 39.446
365 31 5 -0.115 5.399 23.602 39.088
366 31 5 -0.115 4.66 24.791 39.081
367 31 24 0.115 4.704 26.916 39.427
368 31 24 0.115 7.101 26.95 40.062
369 31 24 0.115 8.41 24.844 40.074
370 31 24 0.115 7.322 22.704 39.452
371 31 24 0.115 4.925 22.67 38.817
372 31 24 0.115 3.616 24.776 38.804
373 32 5 -0.115 5.274 25.999 47.432
374 32 5 -0.115 6.627 26.018 47.791
375 32 5 -0.115 7.366 24.829 47.798
376 32 5 -0.115 6.752 23.621 47.446
377 32 5 -0.115 5.399 23.602 47.088
378 32 5 -0.115 4.66 24.791 47.081
379 32 24 0.115 4.704 26.916 47.427
380 32 24 0.115 7.101 26.95 48.062
381 32 24 0.115 8.41 24.844 48.074
382 32 24 0.115 7.322 22.704 47.452
383 32 24 0.115 4.925 22.67 46.817
384 32 24 0.115 3.616 24.776 46.804
385 33 5 -0.115 5.274 33.999 -8.568
386 33 5 -0.115 6.627 34.018 -8.209
387 33 5 -0.115 7.366 32.829 -8.202
388 33 5 -0.115 6.752 31.621 -8.554
389 33 5 -0.115 5.399 31.602 -8.912
390 33 5 -0.115 4.66 32.791 -8.919
391 33 24 0.115 4.704 34.916 -8.573
392 33 24 0.115 7.101 34.95 -7.938
393 33 24 0.115 8.41 32.844 -7.926
394 33 24 0.115 7.322 30.704 -8.548
395 33 24 0.115 4.925 30.67 -9.183
396 33 24 0.115 3.616 32.776 -9.196
397 34 5 -0.115 5.274 33.999 -0.568
398 34 5 -0.115 6.627 34.018 -0.209
399 34 5 -0.115 7.366 32.829 -0.202
400 34 5 -0.115 6.752 31.621 -0.554
401 34 5 -0.115 5.399 31.602 -0.912
402 34 5 -0.115 4.66 32.791 -0.919
403 34 24 0.115 4.704 34.916 -0.573
404 34 24 0.115 7.101 34.95 0.062
405 34 24 0.115 8.41 32.844 0.074
406 34 24 0.115 7.322 30.704 -0.548
407 34 24 0.115 4.925 30.67 -1.183
408 34 24 0.115 3.616 32.776 -1.196
409 35 5 -0.115 5.274 33.999 7.432
410 35 5 -0.115 6.627 34.018 7.791
411 35 5 -0.115 7.366 32.829 7.798
412 35 5 -0.115 6.752 31.621 7.446
413 35 5 -0.115 5.399 31.602 7.088
414 35 5 -0.115 4.66 32.791 7.081
415 35 24 0.115 4.704 34.916 7.427
416 35 24 0.115 7.101 34.95 8.062
417 35 24 0.115 8.41 32.844 8.074
418 35 24 0.115 7.322 30.704 7.452
419 35 24 0.115 4.925 30.67 6.817
420 35 24 0.115 3.616 32.776 6.804
421 36 5 -0.115 5.274 33.999 15.432
422 36 5 -0.115 6.627 34.018 15.791
423 36 5 -0.115 7.366 32.829 15.798
424 36 5 -0.115 6.752 31.621 15.446
425 36 5 -0.115 5.399 31.602 15.088
426 36 5 -0.115 4.66 32.791 15.081
427 36 24 0.115 4.704 34.916 15.427
428 36 24 0.115 7.101 34.95 16.062
429 36 24 0.115 8.41 32.844 16.074
430 36 24 0.115 7.322 30.704 15.452
431 36 24 0.115 4.925 30.67 14.817
432 36 24 0.115 3.616 32.776 14.804
433 37 5 -0.115 5.274 33.999 23.432
434 37 5 -0.115 6.627 34.018 23.791
435 37 5 -0.115 7.366 32.829 23.798
436 37 5 -0.115 6.752 31.621 23.446
437 37 5 -0.115 5.399 31.602 23.088
438 37 5 -0.115 4.66 32.791 23.081
439 37 24 0.115 4.704 34.916 23.427
440 37 24 0.115 7.101 34.95 24.062
441 37 24 0.115 8.41 32.844 24.074
442 37 24 0.115 7.322 30.704 23.452
443 37 24 0.115 4.925 30.67 22.817
444 37 24 0.115 3.616 32.776 22.804
445 38 5 -0.115 5.274 33.999 31.432
446 38 5 -0.115 6.627 34.018 31.791
447 38 5 -0.115 7.366 32.829 31.798
448 38 5 -0.115 6.752 31.621 31.446
449 38 5 -0.115 5.399 31.602 31.088
450 38 5 -0.115 4.66 32.791 31.081
451 38 24 0.115 4.704 34.916 31.427
452 38 24 0.115 7.101 34.95 32.062
453 38 24 0.115 8.41 32.844 32.074
454 38 24 0.115 7.322 30.704 31.452
455 38 24 0.115 4.925 30.67 30.817
456 38 24 0.115 3.616 32.776 30.804
457 39 5 -0.115 5.274 33.999 39.432
458 39 5 -0.115 6.627 34.018 39.791
459 39 5 -0.115 7.366 32.829 39.798
460 39 5 -0.115 6.752 31.621 39.446
461 39 5 -0.115 5.399 31.602 39.088
462 39 5 -0.115 4.66 32.791 39.081
463 39 24 0.115 4.704 34.916 39.427
464 39 24 0.115 7.101 34.95 40.062
465 39 24 0.115 8.41 32.844 40.074
466 39 24 0.115 7.322 30.704 39.452
467 39 24 0.115 4.925 30.67 38.817
468 39 24 0.115 3.616 32.776 38.804
469 40 5 -0.115 5.274 33.999 47.432
470 40 5 -0.115 6.627 34.018 47.791
471 40 5 -0.115 7.366 32.829 47.798
472 40 5 -0.115 6.752 31.621 47.446
473 40 5 -0.115 5.399 31.602 47.088
474 40 5 -0.115 4.66 32.791 47.081
475 40 24 0.115 4.704 34.916 47.427
476 40 24 0.115 7.101 34.95 48.062
477 40 24 0.115 8.41 32.844 48.074
478 40 24 0.115 7.322 30.704 47.452
479 40 24 0.115 4.925 30.67 46.817
480 40 24 0.115 3.616 32.776 46.804
481 41 5 -0.115 5.274 41.999 -8.568
482 41 5 -0.115 6.627 42.018 -8.209
483 41 5 -0.115 7.366 40.829 -8.202
484 41 5 -0.115 6.752 39.621 -8.554
485 41 5 -0.115 5.399 39.602 -8.912
486 41 5 -0.115 4.66 40.791 -8.919
487 41 24 0.115 4.704 42.916 -8.573
488 41 24 0.115 7.101 42.95 -7.938
489 41 24 0.115 8.41 40.844 -7.926
490 41 24 0.115 7.322 38.704 -8.548
491 41 24 0.115 4.925 38.67 -9.183
492 41 24 0.115 3.616 40.776 -9.196
493 42 5 -0.115 5.274 41.999 -0.568
494 42 5 -0.115 6.627 42.018 -0.209
495 42 5 -0.115 7.366 40.829 -0.202
496 42 5 -0.115 6.752 39.621 -0.554
497 42 5 -0.115 5.399 39.602 -0.912
498 42 5 -0.115 4.66 40.791 -0.919
499 42 24 0.115 4.704 42.916 -0.573
500 42 24 0.115 7.101 42.95 0.062
501 42 24 0.115 8.41 40.844 0.074
502 42 24 0.115 7.322 38.704 -0.548
503 42 24 0.115 4.925 38.67 -1.183
504 42 24 0.115 3.616 40.776 -1.196
505 43 5 -0.115 5.274 41.999 7.432
506 43 5 -0.115 6.627 42.018 7.791
507 43 5 -0.115 7.366 40.829 7.798
508 43 5 -0.115 6.752 39.621 7.446
509 43 5 -0.115 5.399 39.602 7.088
510 43 5 -0.115 4.66 40.791 7.081
511 43 24 0.115 4.704 42.916 7.427
512 43 24 0.115 7.101 42.95 8.062
513 43 24 0.115 8.41 40.844 8.074
514 43 24 0.115 7.322 38.704 7.452
515 43 24 0.115 4.925 38.67 6.817
516 43 24 0.115 3.616 40.776 6.804
517 44 5 -0.115 5.274 41.999 15.432
518 44 5 -0.115 6.627 42.018 15.791
519 44 5 -0.115 7.366 40.829 15.798
520 44 5 -0.115 6.752 39.621 15.446
521 44 5 -0.115 5.399 39.602 15.088
522 44 5 -0.115 4.66 40.791 15.081
523 44 24 0.115 4.704 42.916 15.427
524 44 24 0.115 7.101 42.95 16.062
525 44 24 0.115 8.41 40.844 16.074
526 44 24 0.115 7.322 38.704 15.452
527 44 24 0.115 4.925 38.67 14.817
528 44 24 0.115 3.616 40.776 14.804
529 45 5 -0.115 5.274 41.999 23.432
530 45 5 -0.115 6.627 42.018 23.791
531 45 5 -0.115 7.366 40.829 23.798
532 45 5 -0.115 6.752 39.621 23.446
533 45 5 -0.115 5.399 39.602 23.088
534 45 5 -0.115 4.66 40.791 23.081
535 45 24 0.115 4.704 42.916 23.427
536 45 24 0.115 7.101 42.95 24.062
537 45 24 0.115 8.41 40.844 24.074
538 45 24 0.115 7.322 38.704 23.452
539 45 24 0.115 4.925 38.67 22.817
540 45 24 0.115 3.616 40.776 22.804
541 46 5 -0.115 5.274 41.999 31.432
542 46 5 -0.115 6.627 42.018 31.791
543 46 5 -0.115 7.366 40.829 31.798
544 46 5 -0.115 6.752 39.621 31.446
545 46 5 -0.115 5.399 39.602 31.088
546 46 5 -0.115 4.66 40.791 31.081
547 46 24 0.115 4.704 42.916 31.427
548 46 24 0.115 7.101 42.95 32.062
549 46 24 0.115 8.41 40.844 32.074
550 46 24 0.115 7.322 38.704 31.452
551 46 24 0.115 4.925 38.67 30.817
552 46 24 0.115 3.616 40.776 30.804
553 47 5 -0.115 5.274 41.999 39.432
554 47 5 -0.115 6.627 42.018 39.791
555 47 5 -0.115 7.366 40.829 39.798
556 47 5 -0.115 6.752 39.621 39.446
557 47 5 -0.115 5.399 39.602 39.088
558 47 5 -0.115 4.66 40.791 39.081
559 47 24 0.115 4.704 42.916 39.427
560 47 24 0.115 7.101 42.95 40.062
561 47 24 0.115 8.41 40.844 40.074
562 47 24 0.115 7.322 38.704 39.452
563 47 24 0.115 4.925 38.67 38.817
564 47 24 0.115 3.616 40.776 38.804
565 48 5 -0.115 5.274 41.999 47.432
566 48 5 -0.115 6.627 42.018 47.791
567 48 5 -0.115 7.366 40.829 47.798
568 48 5 -0.115 6.752 39.621 47.446
569 48 5 -0.115 5.399 39.602 47.088
570 48 5 -0.115 4.66 40.791 47.081
571 48 24 0.115 4.704 42.916 47.427
572 48 24 0.115 7.101 42.95 48.062
573 48 24 0.115 8.41 40.844 48.074
574 48 24 0.115 7.322 38.704 47.452
575 48 24 0.115 4.925 38.67 46.817
576 48 24 0.115 3.616 40.776 46.804
577 49 5 -0.115 5.274 49.999 -8.568
578 49 5 -0.115 6.627 50.018 -8.209
579 49 5 -0.115 7.366 48.829 -8.202
580 49 5 -0.115 6.752 47.621 -8.554
581 49 5 -0.115 5.399 47.602 -8.912
582 49 5 -0.115 4.66 48.791 -8.919
583 49 24 0.115 4.704 50.916 -8.573
584 49 24 0.115 7.101 50.95 -7.938
585 49 24 0.115 8.41 48.844 -7.926
586 49 24 0.115 7.322 46.704 -8.548
587 49 24 0.115 4.925 46.67 -9.183
588 49 24 0.115 3.616 48.776 -9.196
589 50 5 -0.115 5.274 49.999 -0.568
590 50 5 -0.115 6.627 50.018 -0.209
591 50 5 -0.115 7.366 48.829 -0.202
592 50 5 -0.115 6.752 47.621 -0.554
593 50 5 -0.115 5.399 47.602 -0.912
594 50 5 -0.115 4.66 48.791 -0.919
595 50 24 0.115 4.704 50.916 -0.573
596 50 24 0.115 7.101 50.95 0.062
597 50 24 0.115 8.41 48.844 0.074
598 50 24 0.115 7.322 46.704 -0.548
599 50 24 0.115 4.925 46.67 -1.183
600 50 24 0.115 3.616 48.776 -1.196
601 51 5 -0.115 5.274 49.999 7.432
602 51 5 -0.115 6.627 50.018 7.791
603 51 5 -0.115 7.366 48.829 7.798
604 51 5 -0.115 6.752 47.621 7.446
605 51 5 -0.115 5.399 47.602 7.088
606 51 5 -0.115 4.66 48.791 7.081
607 51 24 0.115 4.704 50.916 7.427
608 51 24 0.115 7.101 50.95 8.062
609 51 24 0.115 8.41 48.844 8.074
610 51 24 0.115 7.322 46.704 7.452
611 51 24 0.115 4.925 46.67 6.817
612 51 24 0.115 3.616 48.776 6.804
613 52 5 -0.115 5.274 49.999 15.432
614 52 5 -0.115 6.627 50.018 15.791
615 52 5 -0.115 7.366 48.829 15.798
616 52 5 -0.115 6.752 47.621 15.446
617 52 5 -0.115 5.399 47.602 15.088
618 52 5 -0.115 4.66 48.791 15.081
619 52 24 0.115 4.704 50.916 15.427
620 52 24 0.115 7.101 50.95 16.062
621 52 24 0.115 8.41 48.844 16.074
622 52 24 0.115 7.322 46.704 15.452
623 52 24 0.115 4.925 46.67 14.817
624 52 24 0.115 3.616 48.776 14.804
625 53 5 -0.115 5.274 49.999 23.432
626 53 5 -0.115 6.627 50.018 23.791
627 53 5 -0.115 7.366 48.829 23.798
628 53 5 -0.115 6.752 47.621 23.446
629 53 5 -0.115 5.399 47.602 23.088
630 53 5 -0.115 4.66 48.791 23.081
631 53 24 0.115 4.704 50.916 23.427
632 53 24 0.115 7.101 50.95 24.062
633 53 24 0.115 8.41 48.844 24.074
634 53 24 0.115 7.322 46.704 23.452
635 53 24 0.115 4.925 46.67 22.817
636 53 24 0.115 3.616 48.776 22.804
637 54 5 -0.115 5.274 49.999 31.432
638 54 5 -0.115 6.627 50.018 31.791
639 54 5 -0.115 7.366 48.829 31.798
640 54 5 -0.115 6.752 47.621 31.446
641 54 5 -0.115 5.399 47.602 31.088
642 54 5 -0.115 4.66 48.791 31.081
643 54 24 0.115 4.704 50.916 31.427
644 54 24 0.115 7.101 50.95 32.062
645 54 24 0.115 8.41 48.844 32.074
646 54 24 0.115 7.322 46.704 31.452
647 54 24 0.115 4.925 46.67 30.817
648 54 24 0.115 3.616 48.776 30.804
649 55 5 -0.115 5.274 49.999 39.432
650 55 5 -0.115 6.627 50.018 39.791
651 55 5 -0.115 7.366 48.829 39.798
652 55 5 -0.115 6.752 47.621 39.446
653 55 5 -0.115 5.399 47.602 39.088
654 55 5 -0.115 4.66 48.791 39.081
655 55 24 0.115 4.704 50.916 39.427
656 55 24 0.115 7.101 50.95 40.062
657 55 24 0.115 8.41 48.844 40.074
658 55 24 0.115 7.322 46.704 39.452
659 55 24 0.115 4.925 46.67 38.817
660 55 24 0.115 3.616 48.776 38.804
661 56 5 -0.115 5.274 49.999 47.432
662 56 5 -0.115 6.627 50.018 47.791
663 56 5 -0.115 7.366 48.829 47.798
664 56 5 -0.115 6.752 47.621 47.446
665 56 5 -0.115 5.399 47.602 47.088
666 56 5 -0.115 4.66 48.791 47.081
667 56 24 0.115 4.704 50.916 47.427
668 56 24 0.115 7.101 50.95 48.062
669 56 24 0.115 8.41 48.844 48.074
670 56 24 0.115 7.322 46.704 47.452
671 56 24 0.115 4.925 46.67 46.817
672 56 24 0.115 3.616 48.776 46.804
673 57 5 -0.115 5.274 57.999 -8.568
674 57 5 -0.115 6.627 58.018 -8.209
675 57 5 -0.115 7.366 56.829 -8.202
676 57 5 -0.115 6.752 55.621 -8.554
677 57 5 -0.115 5.399 55.602 -8.912
678 57 5 -0.115 4.66 56.791 -8.919
679 57 24 0.115 4.704 58.916 -8.573
680 57 24 0.115 7.101 58.95 -7.938
681 57 24 0.115 8.41 56.844 -7.926
682 57 24 0.115 7.322 54.704 -8.548
683 57 24 0.115 4.925 54.67 -9.183
684 57 24 0.115 3.616 56.776 -9.196
685 58 5 -0.115 5.274 57.999 -0.568
686 58 5 -0.115 6.627 58.018 -0.209
687 58 5 -0.115 7.366 56.829 -0.202
688 58 5 -0.115 6.752 55.621 -0.554
689 58 5 -0.115 5.399 55.602 -0.912
690 58 5 -0.115 4.66 56.791 -0.919
691 58 24 0.115 4.704 58.916 -0.573
692 58 24 0.115 7.101 58.95 0.062
693 58 24 0.115 8.41 56.844 0.074
694 58 24 0.115 7.322 54.704 -0.548
695 58 24 0.115 4.925 54.67 -1.183
696 58 24 0.115 3.616 56.776 -1.196
697 59 5 -0.115 5.274 57.999 7.432
698 59 5 -0.115 6.627 58.018 7.791
699 59 5 -0.115 7.366 56.829 7.798
700 59 5 -0.115 6.752 55.621 7.446
701 59 5 -0.115 5.399 55.602 7.088
702 59 5 -0.115 4.66 56.791 7.081
703 59 24 0.115 4.704 58.916 7.427
704 59 24 0.115 7.101 58.95 8.062
705 59 24 0.115 8.41 56.844 8.074
706 59 24 0.115 7.322 54.704 7.452
707 59 24 0.115 4.925 54.67 6.817
708 59 24 0.115 3.616 56.776 6.804
709 60 5 -0.115 5.274 57.999 15.432
710 60 5 -0.115 6.627 58.018 15.791
711 60 5 -0.115 7.366 56.829 15.798
712 60 5 -0.115 6.752 55.621 15.446
713 60 5 -0.115 5.399 55.602 15.088
714 60 5 -0.115 4.66 56.791 15.081
715 60 24 0.115 4.704 58.916 15.427
716 60 24 0.115 7.101 58.95 16.062
717 60 24 0.115 8.41 56.844 16.074
718 60 24 0.115 7.322 54.704 15.452
719 60 24 0.115 4.925 54.67 14.817
720 60 24 0.115 3.616 56.776 14.804
721 61 5 -0.115 5.274 57.999 23.432
722 61 5 -0.115 6.627 58.018 23.791
723 61 5 -0.115 7.366 56.829 23.798
724 61 5 -0.115 6.752 55.621 23.446
725 61 5 -0.115 5.399 55.602 23.088
726 61 5 -0.115 4.66 56.791 23.081
727 61 24 0.115 4.704 58.916 23.427
728 61 24 0.115 7.101 58.95 24.062
729 61 24 0.115 8.41 56.844 24.074
730 61 24 0.115 7.322 54.704 23.452
731 61 24 0.115 4.925 54.67 22.817
732 61 24 0.115 3.616 56.776 22.804
733 62 5 -0.115 5.274 57.999 31.432
734 62 5 -0.115 6.627 58.018 31.791
735 62 5 -0.115 7.366 56.829 31.798
736 62 5 -0.115 6.752 55.621 31.446
737 62 5 -0.115 5.399 55.602 31.088
738 62 5 -0.115 4.66 56.791 31.081
739 62 24 0.115 4.704 58.916 31.427
740 62 24 0.115 7.101 58.95 32.062
741 62 24 0.115 8.41 56.844 32.074
742 62 24 0.115 7.322 54.704 31.452
743 62 24 0.115 4.925 54.67 30.817