LAMMPS (23 Jun 2022 - Update 1)
# REAX potential for VOH system
# .....
#/camera position 38 50 7
#/camera target 12.5 12.5 12.5
#/atom 1 hydrogen
#/atom 2 carbon
#/atom 3 oxygen
#/atom 4 vanadium

#/bond 1 2 1.7
#/bond 2 4 3.0
#/bond 3 4 2.5
#/bond 1 3 1.7
log none
